                         Program Version 5.0.4 -  RELEASE  -
|  1> !  NUMFREQ B3LYP def2-TZVP CPCM D3
|  2> %pal nprocs 102 end
|  3> %cpcm epsilon 78.4 end
|  4> *xyz 0 1
|  5> C   2.23659993915282 -0.6435112039871 -0.38255235474072
|  6> H   2.85668617077905 -0.8759348629143 -1.24802776941282
|  7> N   1.62331586348981 -3.01426313268372 -0.22972573960462
|  8> O   2.43778497458486 -3.82540835855293 -0.64386059175668
|  9> O   0.42407690929848 -3.08231850480921 -0.4462584711348
| 10> H   1.7304721762585 -0.79154448355035 2.37123656361973
| 11> C   2.1493112665321 -1.82960115020821 0.56966130979565
| 12> H   3.14402382945784 -2.1465794049607 0.86845746085814
| 13> H   1.24290488458398 -0.34293748840391 -0.71587194121276
| 14> C   1.26574013814485 -1.57819005227671 1.77612952373779
| 15> H   0.27205513719699 -1.24739740545957 1.47729201254762
| 16> C   5.80914641708498 -0.84935098919896 -0.36924728239324
| 17> C   6.16140700586554 -1.31618952923967 -1.62827324905671
| 18> C   6.43152198594683 -2.67024226133892 -1.78358288165247
| 19> C   6.34109112553602 -3.50270317204538 -0.67478318373737
| 20> C   5.98214257250945 -2.94660748318323 0.54543638904831
| 21> N   5.71937646732907 -1.64525022014113 0.70030072885059
| 22> H   6.21772448973711 -0.63213729977152 -2.46420579002491
| 23> H   6.70571577405953 -3.06980791494702 -2.75157144933179
| 24> H   6.54054474196396 -4.56307714018744 -0.75050183758097
| 25> H   2.6928321104791 0.18946743828515 0.15234382295256
| 26> H   1.17716398461417 -2.47078021636903 2.39613020105323
| 27> H   5.89450644080136 -3.56407526939661 1.43214859862943
| 28> H   5.58389729583913 0.19870163587927 -0.2096520842953
| 29> H   4.0422510524055 -1.28468683871341 3.39732639543394
| 30> H   5.08725038551477 -1.01320000041164 2.28905675396194
| 31> O   4.73506686083378 -0.66365469141359 3.14462486544623
| 32> *
| 33>
| 34>                          ****END OF INPUT****

CARTESIAN COORDINATES (ANGSTROEM)
---------------------------------
  C      2.236600   -0.643511   -0.382552
  H      2.856686   -0.875935   -1.248028
  N      1.623316   -3.014263   -0.229726
  O      2.437785   -3.825408   -0.643861
  O      0.424077   -3.082319   -0.446258
  H      1.730472   -0.791544    2.371237
  C      2.149311   -1.829601    0.569661
  H      3.144024   -2.146579    0.868457
  H      1.242905   -0.342937   -0.715872
  C      1.265740   -1.578190    1.776130
  H      0.272055   -1.247397    1.477292
  C      5.809146   -0.849351   -0.369247
  C      6.161407   -1.316190   -1.628273
  C      6.431522   -2.670242   -1.783583
  C      6.341091   -3.502703   -0.674783
  C      5.982143   -2.946607    0.545436
  N      5.719376   -1.645250    0.700301
  H      6.217724   -0.632137   -2.464206
  H      6.705716   -3.069808   -2.751571
  H      6.540545   -4.563077   -0.750502
  H      2.692832    0.189467    0.152344
  H      1.177164   -2.470780    2.396130
  H      5.894506   -3.564075    1.432149
  H      5.583897    0.198702   -0.209652
  H      4.042251   -1.284687    3.397326
  H      5.087250   -1.013200    2.289057
  O      4.735067   -0.663655    3.144625

 Total Charge           Charge          ....    0
 Multiplicity           Mult            ....    1
 Number of Electrons    NEL             ....  100
 Basis Dimension        Dim             ....  487

ORBITAL ENERGIES
----------------

  NO   OCC          E(Eh)            E(eV)
   0   2.0000     -19.168940      -521.6134
   1   2.0000     -19.168864      -521.6113
   2   2.0000     -19.101370      -519.7747
   3   2.0000     -14.549652      -395.9162
   4   2.0000     -14.328409      -389.8958
   5   2.0000     -10.230195      -278.3778
   6   2.0000     -10.213207      -277.9155
   7   2.0000     -10.213112      -277.9129
   8   2.0000     -10.194164      -277.3973
   9   2.0000     -10.184664      -277.1388
  10   2.0000     -10.184620      -277.1376
  11   2.0000     -10.170443      -276.7518
  12   2.0000     -10.167288      -276.6660
  13   2.0000      -1.238674       -33.7060
  14   2.0000      -1.065286       -28.9879
  15   2.0000      -0.984193       -26.7813
  16   2.0000      -0.955518       -26.0010
  17   2.0000      -0.841681       -22.9033
  18   2.0000      -0.810727       -22.0610
  19   2.0000      -0.770052       -20.9542
  20   2.0000      -0.702233       -19.1087
  21   2.0000      -0.697938       -18.9918
  22   2.0000      -0.638306       -17.3692
  23   2.0000      -0.633832       -17.2474
  24   2.0000      -0.588926       -16.0255
  25   2.0000      -0.545544       -14.8450
  26   2.0000      -0.538553       -14.6548
  27   2.0000      -0.535534       -14.5726
  28   2.0000      -0.521962       -14.2033
  29   2.0000      -0.504397       -13.7253
  30   2.0000      -0.490213       -13.3394
  31   2.0000      -0.471694       -12.8354
  32   2.0000      -0.463515       -12.6129
  33   2.0000      -0.435118       -11.8401
  34   2.0000      -0.416472       -11.3328
  35   2.0000      -0.412354       -11.2207
  36   2.0000      -0.410988       -11.1836
  37   2.0000      -0.409487       -11.1427
  38   2.0000      -0.394773       -10.7423
  39   2.0000      -0.375126       -10.2077
  40   2.0000      -0.369877       -10.0649
  41   2.0000      -0.364068        -9.9068
  42   2.0000      -0.360128        -9.7996
  43   2.0000      -0.329073        -8.9545
  44   2.0000      -0.314158        -8.5487
  45   2.0000      -0.307905        -8.3785
  46   2.0000      -0.300819        -8.1857
  47   2.0000      -0.297260        -8.0889
  48   2.0000      -0.278501        -7.5784
  49   2.0000      -0.273318        -7.4374
  50   0.0000      -0.077991        -2.1222
  51   0.0000      -0.042156        -1.1471
  52   0.0000      -0.025495        -0.6937
  53   0.0000       0.029274         0.7966
  54   0.0000       0.060178         1.6375

MULLIKEN ATOMIC CHARGES
-----------------------
   0 C :   -0.380169
   1 H :    0.146352
   2 N :    0.438275
   3 O :   -0.355867
   4 O :   -0.353193
   5 H :    0.127838
   6 C :    0.054144
   7 H :    0.113770
   8 H :    0.140332
   9 C :   -0.363303
  10 H :    0.132339
  11 C :    0.001029
  12 C :   -0.132255
  13 C :   -0.106590
  14 C :   -0.130739
  15 C :   -0.007508
  16 N :   -0.335790
  17 H :    0.154182
  18 H :    0.161648
  19 H :    0.154270
  20 H :    0.136371
  21 H :    0.140102
  22 H :    0.152383
  23 H :    0.154393
  24 H :    0.343462
  25 H :    0.339771
  26 O :   -0.725246
Sum of atomic charges:   -0.0000000

LOEWDIN ATOMIC CHARGES
----------------------
   0 C :   -0.266007
   1 H :    0.129949
   2 N :   -0.032749
   3 O :   -0.055767
   4 O :   -0.049518
   5 H :    0.134048
   6 C :   -0.278534
   7 H :    0.155635
   8 H :    0.129601
   9 C :   -0.273645
  10 H :    0.127814
  11 C :   -0.195737
  12 C :   -0.136469
  13 C :   -0.104496
  14 C :   -0.137641
  15 C :   -0.200684
  16 N :    0.107168
  17 H :    0.155305
  18 H :    0.156235
  19 H :    0.155220
  20 H :    0.138184
  21 H :    0.130302
  22 H :    0.144790
  23 H :    0.145230
  24 H :    0.157851
  25 H :    0.134551
  26 O :   -0.370638

  Mayer bond orders larger than 0.100000
B(  0-C ,  1-H ) :   0.9705 B(  0-C ,  6-C ) :   0.9458 B(  0-C ,  8-H ) :   0.9566
B(  0-C , 20-H ) :   0.9626 B(  2-N ,  3-O ) :   1.6054 B(  2-N ,  4-O ) :   1.6055
B(  2-N ,  6-C ) :   0.8338 B(  3-O ,  4-O ) :   0.2096 B(  5-H ,  9-C ) :   0.9613
B(  6-C ,  7-H ) :   0.9437 B(  6-C ,  9-C ) :   0.9510 B(  9-C , 10-H ) :   0.9616
B(  9-C , 21-H ) :   0.9703 B( 11-C , 12-C ) :   1.4246 B( 11-C , 16-N ) :   1.3761
B( 11-C , 23-H ) :   0.9556 B( 12-C , 13-C ) :   1.4102 B( 12-C , 17-H ) :   0.9613
B( 13-C , 14-C ) :   1.4084 B( 13-C , 18-H ) :   0.9541 B( 14-C , 15-C ) :   1.4248
B( 14-C , 19-H ) :   0.9615 B( 15-C , 16-N ) :   1.3815 B( 15-C , 22-H ) :   0.9571
B( 16-N , 25-H ) :   0.1553 B( 24-H , 26-O ) :   0.8927 B( 25-H , 26-O ) :   0.8093

Dispersion correction           -0.043799272
FINAL SINGLE POINT ENERGY      -648.335375133251
Dispersion correction            ... done

DIPOLE MOMENT
-------------
                                X             Y             Z
Electronic contribution:      1.43269      -7.18061      -5.28058
Nuclear contribution   :     -0.58794       7.37891       4.30674
                        -----------------------------------------
Total Dipole Moment    :      0.84475       0.19830      -0.97384
                        -----------------------------------------
Magnitude (a.u.)       :      1.30433
Magnitude (Debye)      :      3.31535

VIBRATIONAL FREQUENCIES
-----------------------

Scaling factor for frequencies =  1.000000000 (already applied!)

   0:         0.00 cm**-1
   1:         0.00 cm**-1
   2:         0.00 cm**-1
   3:         0.00 cm**-1
   4:         0.00 cm**-1
   5:         0.00 cm**-1
   6:       -19.28 cm**-1 ***imaginary mode***
   7:       -12.42 cm**-1 ***imaginary mode***
   8:        31.57 cm**-1
   9:        35.63 cm**-1
  10:        40.09 cm**-1
  11:        45.75 cm**-1
  12:        55.41 cm**-1
  13:        68.59 cm**-1
  14:        79.02 cm**-1
  15:       174.83 cm**-1
  16:       191.04 cm**-1
  17:       234.05 cm**-1
  18:       253.76 cm**-1
  19:       271.73 cm**-1
  20:       306.64 cm**-1
  21:       346.15 cm**-1
  22:       391.96 cm**-1
  23:       412.11 cm**-1
  24:       458.62 cm**-1
  25:       525.17 cm**-1
  26:       629.53 cm**-1
  27:       634.14 cm**-1
  28:       667.68 cm**-1
  29:       717.53 cm**-1
  30:       748.57 cm**-1
  31:       752.01 cm**-1
  32:       774.85 cm**-1
  33:       864.77 cm**-1
  34:       901.73 cm**-1
  35:       905.59 cm**-1
  36:       952.61 cm**-1
  37:       964.57 cm**-1
  38:       970.44 cm**-1
  39:      1013.63 cm**-1
  40:      1026.26 cm**-1
  41:      1033.64 cm**-1
  42:      1055.09 cm**-1
  43:      1085.18 cm**-1
  44:      1092.76 cm**-1
  45:      1119.54 cm**-1
  46:      1150.05 cm**-1
  47:      1169.29 cm**-1
  48:      1198.80 cm**-1
  49:      1233.69 cm**-1
  50:      1286.93 cm**-1
  51:      1336.05 cm**-1
  52:      1358.47 cm**-1
  53:      1389.11 cm**-1
  54:      1391.60 cm**-1
  55:      1399.32 cm**-1
  56:      1436.69 cm**-1
  57:      1471.70 cm**-1
  58:      1472.65 cm**-1
  59:      1475.97 cm**-1
  60:      1480.36 cm**-1
  61:      1492.31 cm**-1
  62:      1517.61 cm**-1
  63:      1562.32 cm**-1
  64:      1615.19 cm**-1
  65:      1633.15 cm**-1
  66:      1640.41 cm**-1
  67:      3046.31 cm**-1
  68:      3050.14 cm**-1
  69:      3117.35 cm**-1
  70:      3119.01 cm**-1
  71:      3123.65 cm**-1
  72:      3125.42 cm**-1
  73:      3150.51 cm**-1
  74:      3165.37 cm**-1
  75:      3169.52 cm**-1
  76:      3183.99 cm**-1
  77:      3198.80 cm**-1
  78:      3203.73 cm**-1
  79:      3281.42 cm**-1
  80:      3816.09 cm**-1

IR SPECTRUM
-----------

 Mode   freq       eps      Int      T**2         TX        TY        TZ
       cm**-1   L/(mol*cm) km/mol    a.u.
----------------------------------------------------------------------------
  8:     31.57   0.000108    0.55  0.001069  (-0.005708 -0.021807 -0.023686)
  9:     35.63   0.000284    1.43  0.002485  ( 0.027225  0.025839 -0.032806)
 10:     40.09   0.001581    7.99  0.012305  ( 0.108591 -0.019427 -0.011648)
 11:     45.75   0.000187    0.95  0.001276  ( 0.010495 -0.004252  0.033878)
 12:     55.41   0.000204    1.03  0.001149  ( 0.022989 -0.021796  0.012064)
 13:     68.59   0.002276   11.50  0.010355  ( 0.091534 -0.038177  0.022783)
 14:     79.02   0.000477    2.41  0.001885  (-0.034399  0.006935 -0.025570)
 15:    174.83   0.004277   21.61  0.007634  (-0.070557  0.049719  0.013556)
 16:    191.04   0.025563  129.19  0.041757  ( 0.138766 -0.098560  0.113080)
 17:    234.05   0.008498   42.94  0.011330  (-0.065286  0.054794 -0.063761)
 18:    253.76   0.002200   11.12  0.002706  ( 0.014687 -0.033871  0.036647)
 19:    271.73   0.001524    7.70  0.001751  ( 0.040862 -0.008901 -0.001329)
 20:    306.64   0.000920    4.65  0.000936  (-0.008596  0.026094  0.013479)
 21:    346.15   0.000149    0.75  0.000135  (-0.002548 -0.003001 -0.010916)
 22:    391.96   0.000012    0.06  0.000010  ( 0.002131  0.000337 -0.002234)
 23:    412.11   0.003067   15.50  0.002322  ( 0.014071 -0.004323 -0.045887)
 24:    458.62   0.021227  107.27  0.014444  (-0.083295 -0.009105  0.086154)
 25:    525.17   0.002169   10.96  0.001289  (-0.000094  0.029064  0.021074)
 26:    629.53   0.002335   11.80  0.001158  ( 0.014957  0.021056  0.022146)
 27:    634.14   0.002728   13.79  0.001343  ( 0.014796 -0.012860 -0.030957)
 28:    667.68   0.000046    0.23  0.000022  ( 0.004522  0.000530  0.000908)
 29:    717.53   0.023945  121.01  0.010414  ( 0.098281  0.014004  0.023634)
 30:    748.57   0.026573  134.29  0.011078  ( 0.072121 -0.047863  0.059879)
 31:    752.01   0.000936    4.73  0.000388  ( 0.005794 -0.010050  0.015926)
 32:    774.85   0.002318   11.71  0.000934  ( 0.003704  0.026789 -0.014220)
 33:    864.77   0.005793   29.28  0.002091  ( 0.021480  0.032358  0.024128)
 34:    901.73   0.000006    0.03  0.000002  (-0.000170  0.001116 -0.000936)
 35:    905.59   0.001684    8.51  0.000580  ( 0.004022  0.022448  0.007750)
 36:    952.61   0.000780    3.94  0.000255  ( 0.006564  0.004447 -0.013878)
 37:    964.57   0.000034    0.17  0.000011  ( 0.003175  0.000120 -0.000983)
 38:    970.44   0.000018    0.09  0.000006  (-0.000706 -0.002287 -0.000124)
 39:   1013.63   0.000013    0.07  0.000004  (-0.000271 -0.001608  0.001148)
 40:   1026.26   0.004841   24.46  0.001472  ( 0.011302 -0.012981 -0.034289)
 41:   1033.64   0.000005    0.02  0.000001  (-0.001172  0.000046 -0.000084)
 42:   1055.09   0.003795   19.18  0.001123  (-0.008445  0.012367  0.029972)
 43:   1085.18   0.000065    0.33  0.000019  (-0.002055 -0.003781  0.000311)
 44:   1092.76   0.003544   17.91  0.001012  (-0.009644  0.011152  0.028192)
 45:   1119.54   0.008909   45.02  0.002483  ( 0.043040  0.020188  0.014944)
 46:   1150.05   0.002106   10.64  0.000571  ( 0.007850 -0.001505 -0.022528)
 47:   1169.29   0.001010    5.11  0.000270  (-0.001582  0.015041 -0.006392)
 48:   1198.80   0.002298   11.61  0.000598  (-0.021939  0.010188  0.003623)
 49:   1233.69   0.002145   10.84  0.000543  (-0.007364  0.008853  0.020248)
 50:   1286.93   0.000250    1.26  0.000061  ( 0.000879 -0.007552  0.001702)
 51:   1336.05   0.012138   61.34  0.002835  (-0.050767  0.015913  0.002143)
 52:   1358.47   0.005276   26.66  0.001212  ( 0.020888 -0.022526 -0.016377)
 53:   1389.11   0.000283    1.43  0.000064  ( 0.001711 -0.007132  0.003128)
 54:   1391.60   0.007177   36.27  0.001609  ( 0.004918  0.026811  0.029434)
 55:   1399.32   0.003164   15.99  0.000706  (-0.016711 -0.020411  0.003124)
 56:   1436.69   0.022499  113.70  0.004887  (-0.006135  0.063187  0.029273)
 57:   1471.70   0.000765    3.87  0.000162  ( 0.003793  0.004670 -0.011227)
 58:   1472.65   0.000202    1.02  0.000043  ( 0.004197 -0.000663 -0.004980)
 59:   1475.97   0.011750   59.38  0.002484  (-0.004967  0.043992 -0.022898)
 60:   1480.36   0.003072   15.52  0.000648  (-0.021283  0.012945 -0.005197)
 61:   1492.31   0.006761   34.17  0.001414  ( 0.031068  0.013000  0.016720)
 62:   1517.61   0.000445    2.25  0.000092  ( 0.001988 -0.004206 -0.008359)
 63:   1562.32   0.119601  604.41  0.023889  ( 0.144874 -0.052165 -0.013415)
 64:   1615.19   0.001739    8.79  0.000336  ( 0.005407 -0.011335  0.013350)
 65:   1633.15   0.012924   65.31  0.002470  (-0.014498  0.017954  0.044011)
 66:   1640.41   0.022032  111.34  0.004191  ( 0.019059  0.054282  0.029690)
 67:   3046.31   0.003864   19.53  0.000396  ( 0.004864  0.009102 -0.017009)
 68:   3050.14   0.001347    6.81  0.000138  ( 0.006054 -0.007182 -0.007038)
 69:   3117.35   0.003146   15.90  0.000315  ( 0.008028 -0.014987  0.005083)
 70:   3119.01   0.005000   25.27  0.000500  (-0.020938 -0.007616  0.001972)
 71:   3123.65   0.001564    7.90  0.000156  ( 0.005035 -0.010783 -0.003828)
 72:   3125.42   0.002587   13.07  0.000258  ( 0.000508  0.003302  0.015721)
 73:   3150.51   0.002114   10.69  0.000209  ( 0.010744 -0.008099  0.005331)
 74:   3165.37   0.003538   17.88  0.000349  (-0.003118  0.017712 -0.005038)
 75:   3169.52   0.001263    6.38  0.000124  ( 0.002647  0.006522 -0.008649)
 76:   3183.99   0.000214    1.08  0.000021  ( 0.000372 -0.002494 -0.003818)
 77:   3198.80   0.003094   15.64  0.000302  (-0.001111  0.015480 -0.007810)
 78:   3203.73   0.002369   11.97  0.000231  (-0.005455  0.005575  0.013034)
 79:   3281.42   0.355866  1798.40  0.033843  ( 0.069259 -0.057096 -0.160581)
 80:   3816.09   0.014972   75.66  0.001224  (-0.024868 -0.011610  0.021705)

--------------------------
THERMOCHEMISTRY AT 298.15K
--------------------------

Temperature         ... 298.15 K
Pressure            ... 1.00 atm
Total Mass          ... 186.21 AMU

Throughout the following assumptions are being made:
  (1) The electronic state is orbitally nondegenerate
  (2) There are no thermally accessible electronically excited states
  (3) Hindered rotations indicated by low frequency modes are not
      treated as such but are treated as vibrations and this may
      cause some error
  (4) All equations used are the standard statistical mechanics
      equations for an ideal gas
  (5) All vibrations are strictly harmonic

freq.      31.57  E(vib)   ...       0.55
freq.      35.63  E(vib)   ...       0.54
freq.      40.09  E(vib)   ...       0.54
freq.      45.75  E(vib)   ...       0.53
freq.      55.41  E(vib)   ...       0.52
freq.      68.59  E(vib)   ...       0.50
freq.      79.02  E(vib)   ...       0.49
freq.     174.83  E(vib)   ...       0.38
freq.     191.04  E(vib)   ...       0.36
freq.     234.05  E(vib)   ...       0.32
freq.     253.76  E(vib)   ...       0.30
freq.     271.73  E(vib)   ...       0.29
freq.     306.64  E(vib)   ...       0.26
freq.     346.15  E(vib)   ...       0.23
freq.     391.96  E(vib)   ...       0.20
freq.     412.11  E(vib)   ...       0.19
freq.     458.62  E(vib)   ...       0.16
freq.     525.17  E(vib)   ...       0.13
freq.     629.53  E(vib)   ...       0.09
freq.     634.14  E(vib)   ...       0.09
freq.     667.68  E(vib)   ...       0.08
freq.     717.53  E(vib)   ...       0.07
freq.     748.57  E(vib)   ...       0.06
freq.     752.01  E(vib)   ...       0.06
freq.     774.85  E(vib)   ...       0.05
freq.     864.77  E(vib)   ...       0.04
freq.     901.73  E(vib)   ...       0.03
freq.     905.59  E(vib)   ...       0.03
freq.     952.61  E(vib)   ...       0.03
freq.     964.57  E(vib)   ...       0.03
freq.     970.44  E(vib)   ...       0.03
freq.    1013.63  E(vib)   ...       0.02
freq.    1026.26  E(vib)   ...       0.02
freq.    1033.64  E(vib)   ...       0.02
freq.    1055.09  E(vib)   ...       0.02
freq.    1085.18  E(vib)   ...       0.02
freq.    1092.76  E(vib)   ...       0.02
freq.    1119.54  E(vib)   ...       0.01
freq.    1150.05  E(vib)   ...       0.01
freq.    1169.29  E(vib)   ...       0.01
freq.    1198.80  E(vib)   ...       0.01
freq.    1233.69  E(vib)   ...       0.01
freq.    1286.93  E(vib)   ...       0.01
freq.    1336.05  E(vib)   ...       0.01
freq.    1358.47  E(vib)   ...       0.01
freq.    1389.11  E(vib)   ...       0.00
freq.    1391.60  E(vib)   ...       0.00
freq.    1399.32  E(vib)   ...       0.00
freq.    1436.69  E(vib)   ...       0.00
freq.    1471.70  E(vib)   ...       0.00
freq.    1472.65  E(vib)   ...       0.00
freq.    1475.97  E(vib)   ...       0.00
freq.    1480.36  E(vib)   ...       0.00
freq.    1492.31  E(vib)   ...       0.00
freq.    1517.61  E(vib)   ...       0.00
freq.    1562.32  E(vib)   ...       0.00
freq.    1615.19  E(vib)   ...       0.00
freq.    1633.15  E(vib)   ...       0.00
freq.    1640.41  E(vib)   ...       0.00
freq.    3046.31  E(vib)   ...       0.00
freq.    3050.14  E(vib)   ...       0.00
freq.    3117.35  E(vib)   ...       0.00
freq.    3119.01  E(vib)   ...       0.00
freq.    3123.65  E(vib)   ...       0.00
freq.    3125.42  E(vib)   ...       0.00
freq.    3150.51  E(vib)   ...       0.00
freq.    3165.37  E(vib)   ...       0.00
freq.    3169.52  E(vib)   ...       0.00
freq.    3183.99  E(vib)   ...       0.00
freq.    3198.80  E(vib)   ...       0.00
freq.    3203.73  E(vib)   ...       0.00
freq.    3281.42  E(vib)   ...       0.00
freq.    3816.09  E(vib)   ...       0.00

------------
INNER ENERGY
------------

The inner energy is: U= E(el) + E(ZPE) + E(vib) + E(rot) + E(trans)
    E(el)   - is the total energy from the electronic structure calculation
              = E(kin-el) + E(nuc-el) + E(el-el) + E(nuc-nuc)
    E(ZPE)  - the the zero temperature vibrational energy from the frequency calculation
    E(vib)  - the the finite temperature correction to E(ZPE) due to population
              of excited vibrational states
    E(rot)  - is the rotational thermal energy
    E(trans)- is the translational thermal energy

Summary of contributions to the inner energy U:
Electronic energy                ...   -648.33537513 Eh
Zero point energy                ...      0.21937662 Eh     137.66 kcal/mol
Thermal vibrational correction   ...      0.01178216 Eh       7.39 kcal/mol
Thermal rotational correction    ...      0.00141627 Eh       0.89 kcal/mol
Thermal translational correction ...      0.00141627 Eh       0.89 kcal/mol
-----------------------------------------------------------------------
Total thermal energy                   -648.10138381 Eh

Summary of corrections to the electronic energy:
(perhaps to be used in another calculation)
Total thermal correction                  0.01461470 Eh       9.17 kcal/mol
Non-thermal (ZPE) correction              0.21937662 Eh     137.66 kcal/mol
-----------------------------------------------------------------------
Total correction                          0.23399132 Eh     146.83 kcal/mol

--------
ENTHALPY
--------

The enthalpy is H = U + kB*T
                kB is Boltzmann's constant
Total free energy                 ...   -648.10138381 Eh
Thermal Enthalpy correction       ...      0.00094421 Eh       0.59 kcal/mol
-----------------------------------------------------------------------
Total Enthalpy                    ...   -648.10043960 Eh

Note: Only C1 symmetry has been detected, increase convergence thresholds
      if your molecule has a higher symmetry. Symmetry factor of 1.0 is
      used for the rotational entropy correction.

Note: Rotational entropy computed according to Herzberg
Infrared and Raman Spectra, Chapter V,1, Van Nostrand Reinhold, 1945
Point Group:  C1, Symmetry Number:   1
Rotational constants in cm-1:     0.029896     0.016068     0.012871

Vibrational entropy computed according to the QRRHO of S. Grimme
Chem.Eur.J. 2012 18 9955

-------
ENTROPY
-------

The entropy contributions are T*S = T*(S(el)+S(vib)+S(rot)+S(trans))
     S(el)   - electronic entropy
     S(vib)  - vibrational entropy
     S(rot)  - rotational entropy
     S(trans)- translational entropy
The entropies will be listed as multiplied by the temperature to get
units of energy

Electronic entropy                ...      0.00000000 Eh      0.00 kcal/mol

                             ****ORCA TERMINATED NORMALLY****
TOTAL RUN TIME: 0 days 0 hours 22 minutes 55 seconds 292 msec
