                         Program Version 5.0.4 -  RELEASE  -
|  1> !  NUMFREQ B3LYP def2-TZVP CPCM D3
|  2> %pal nprocs 102 end
|  3> %cpcm epsilon 78.4 end
|  4> *xyz 0 1
|  5> C   1.91590610834929 2.4466790286102 3.06360207221881
|  6> C   1.83437898866437 1.05940621377929 3.02039215102569
|  7> C   1.10966306766904 0.43488998564079 2.0091551176576
|  8> C   0.46862030263943 1.20238291788308 1.03733663901476
|  9> C   0.57530604195674 2.58317245901569 1.09121214014026
| 10> C   1.29052404610454 3.2222842799732 2.09609097152783
| 11> H   2.47861269934489 2.92887279569789 3.85233485365567
| 12> H   2.3386323408879 0.46118741182478 3.76790545305342
| 13> H   -0.10300048173437 0.73649359003506 0.24585542243766
| 14> Cl   -0.21640479945331 3.54520297776748 -0.13927763766602
| 15> H   1.35576947630731 4.3011636909866 2.11711434711003
| 16> C   0.98667945528309 -1.07224654531049 2.00329774411727
| 17> C   -0.41227526958926 -1.58200450855177 2.2852650662888
| 18> H   -0.4453623364569 -2.6703151175657 2.24499146473694
| 19> H   -1.1351497909728 -1.17343580475886 1.58140706566103
| 20> H   -0.6858470093982 -1.26090722109581 3.29081446616662
| 21> N   1.49038054043537 -1.58340703289882 0.64651099548132
| 22> O   2.6975482925112 -1.55098366917555 0.45911249318232
| 23> O   0.68362176236212 -1.97503662166446 -0.17506691321333
| 24> N   5.02174335565843 -0.35027032597264 2.20505671613472
| 25> C   6.08607445778077 -1.26281778566513 1.76874719104968
| 26> C   7.32088606440457 -1.02863579250783 2.62085126284908
| 27> O   7.75117947408599 0.33101171603101 2.54292311004462
| 28> C   6.71480554988436 1.2264730166069 2.94909201466279
| 29> C   5.46906498905957 1.04279238359735 2.1007394955081
| 30> H   4.67978635584874 1.70767936570402 2.4535259260506
| 31> H   5.70142620382948 1.31335996207626 1.06058649087438
| 32> H   7.11272763034234 2.2350050431712 2.83995918317207
| 33> H   6.47300690584361 1.05120259552811 4.00559589334534
| 34> H   8.15302750162311 -1.63986470122953 2.27207025348218
| 35> H   7.10576604653022 -1.28414114320019 3.66651140514812
| 36> H   6.34247952444548 -1.10406025491711 0.71193828478245
| 37> H   1.70706645378517 -1.48928476220721 2.70329070088838
| 38> H   4.1988633898255 -0.49579670752279 1.62957910059099
| 39> H   5.74558748730894 -2.29296583514373 1.88788101648128
| 40> H   3.42347693999979 -1.69918450556506 4.62676312476173
| 41> H   4.44342939912268 -0.81098989772794 3.85806057579165
| 42> O   4.13815883571016 -1.06794120124836 4.77085434178472
| 43> *
| 44>
| 45>                          ****END OF INPUT****

CARTESIAN COORDINATES (ANGSTROEM)
---------------------------------
  C      1.915906    2.446679    3.063602
  C      1.834379    1.059406    3.020392
  C      1.109663    0.434890    2.009155
  C      0.468620    1.202383    1.037337
  C      0.575306    2.583172    1.091212
  C      1.290524    3.222284    2.096091
  H      2.478613    2.928873    3.852335
  H      2.338632    0.461187    3.767905
  H     -0.103000    0.736494    0.245855
  Cl    -0.216405    3.545203   -0.139278
  H      1.355769    4.301164    2.117114
  C      0.986679   -1.072247    2.003298
  C     -0.412275   -1.582005    2.285265
  H     -0.445362   -2.670315    2.244991
  H     -1.135150   -1.173436    1.581407
  H     -0.685847   -1.260907    3.290814
  N      1.490381   -1.583407    0.646511
  O      2.697548   -1.550984    0.459112
  O      0.683622   -1.975037   -0.175067
  N      5.021743   -0.350270    2.205057
  C      6.086074   -1.262818    1.768747
  C      7.320886   -1.028636    2.620851
  O      7.751179    0.331012    2.542923
  C      6.714806    1.226473    2.949092
  C      5.469065    1.042792    2.100739
  H      4.679786    1.707679    2.453526
  H      5.701426    1.313360    1.060586
  H      7.112728    2.235005    2.839959
  H      6.473007    1.051203    4.005596
  H      8.153028   -1.639865    2.272070
  H      7.105766   -1.284141    3.666511
  H      6.342480   -1.104060    0.711938
  H      1.707066   -1.489285    2.703291
  H      4.198863   -0.495797    1.629579
  H      5.745587   -2.292966    1.887881
  H      3.423477   -1.699185    4.626763
  H      4.443429   -0.810990    3.858061
  O      4.138159   -1.067941    4.770854

 Total Charge           Charge          ....    0
 Multiplicity           Mult            ....    1
 Number of Electrons    NEL             ....  154
 Basis Dimension        Dim             ....  709

ORBITAL ENERGIES
----------------

  NO   OCC          E(Eh)            E(eV)
   0   2.0000    -101.530854     -2762.7950
   1   2.0000     -19.178681      -521.8784
   2   2.0000     -19.175169      -521.7829
   3   2.0000     -19.127716      -520.4916
   4   2.0000     -19.099913      -519.7351
   5   2.0000     -14.558517      -396.1574
   6   2.0000     -14.307961      -389.3394
   7   2.0000     -10.243338      -278.7354
   8   2.0000     -10.242254      -278.7059
   9   2.0000     -10.209224      -277.8071
  10   2.0000     -10.209066      -277.8028
  11   2.0000     -10.204590      -277.6810
  12   2.0000     -10.192050      -277.3398
  13   2.0000     -10.189186      -277.2618
  14   2.0000     -10.188585      -277.2455
  15   2.0000     -10.187604      -277.2188
  16   2.0000     -10.186587      -277.1911
  17   2.0000     -10.183494      -277.1070
  18   2.0000     -10.172072      -276.7962
  19   2.0000      -9.462988      -257.5010
  20   2.0000      -7.224328      -196.5839
  21   2.0000      -7.216182      -196.3623
  22   2.0000      -7.215830      -196.3527
  23   2.0000      -1.247673       -33.9509
  24   2.0000      -1.074612       -29.2417
  25   2.0000      -1.034591       -28.1527
  26   2.0000      -0.981053       -26.6958
  27   2.0000      -0.907036       -24.6817
  28   2.0000      -0.902663       -24.5627
  29   2.0000      -0.863887       -23.5075
  30   2.0000      -0.827176       -22.5086
  31   2.0000      -0.768446       -20.9105
  32   2.0000      -0.758702       -20.6453
  33   2.0000      -0.741783       -20.1849
  34   2.0000      -0.705634       -19.2013
  35   2.0000      -0.684274       -18.6200
  36   2.0000      -0.645968       -17.5777
  37   2.0000      -0.640494       -17.4287
  38   2.0000      -0.615104       -16.7378
  39   2.0000      -0.593853       -16.1596
  40   2.0000      -0.567775       -15.4500
  41   2.0000      -0.555079       -15.1045
  42   2.0000      -0.551485       -15.0067
  43   2.0000      -0.535818       -14.5803
  44   2.0000      -0.521055       -14.1786
  45   2.0000      -0.514262       -13.9938
  46   2.0000      -0.503586       -13.7033
  47   2.0000      -0.484952       -13.1962
  48   2.0000      -0.472182       -12.8487
  49   2.0000      -0.464510       -12.6400
  50   2.0000      -0.461140       -12.5483
  51   2.0000      -0.448979       -12.2173
  52   2.0000      -0.447076       -12.1656
  53   2.0000      -0.436392       -11.8748
  54   2.0000      -0.431517       -11.7422
  55   2.0000      -0.424412       -11.5488
  56   2.0000      -0.415658       -11.3106
  57   2.0000      -0.409945       -11.1552
  58   2.0000      -0.400714       -10.9040
  59   2.0000      -0.391517       -10.6537
  60   2.0000      -0.383899       -10.4464
  61   2.0000      -0.374661       -10.1950
  62   2.0000      -0.368702       -10.0329
  63   2.0000      -0.363245        -9.8844
  64   2.0000      -0.355157        -9.6643
  65   2.0000      -0.351150        -9.5553
  66   2.0000      -0.341941        -9.3047
  67   2.0000      -0.336174        -9.1477
  68   2.0000      -0.323880        -8.8132
  69   2.0000      -0.320435        -8.7195
  70   2.0000      -0.316475        -8.6117
  71   2.0000      -0.308206        -8.3867
  72   2.0000      -0.296806        -8.0765
  73   2.0000      -0.271258        -7.3813
  74   2.0000      -0.264074        -7.1858
  75   2.0000      -0.256741        -6.9863
  76   2.0000      -0.242500        -6.5988
  77   0.0000      -0.086407        -2.3513
  78   0.0000      -0.034025        -0.9259
  79   0.0000      -0.026221        -0.7135
  80   0.0000       0.020629         0.5613
  81   0.0000       0.030466         0.8290

MULLIKEN ATOMIC CHARGES
-----------------------
   0 C :   -0.109950
   1 C :   -0.220332
   2 C :    0.143351
   3 C :   -0.283860
   4 C :    0.222263
   5 C :   -0.215540
   6 H :    0.153282
   7 H :    0.108395
   8 H :    0.152266
   9 Cl:   -0.132886
  10 H :    0.152300
  11 C :    0.035949
  12 C :   -0.353025
  13 H :    0.143660
  14 H :    0.140789
  15 H :    0.142712
  16 N :    0.444726
  17 O :   -0.363289
  18 O :   -0.328454
  19 N :   -0.419932
  20 C :   -0.076975
  21 C :   -0.033940
  22 O :   -0.374377
  23 C :   -0.039542
  24 C :   -0.075286
  25 H :    0.121910
  26 H :    0.088981
  27 H :    0.121568
  28 H :    0.091023
  29 H :    0.123027
  30 H :    0.085085
  31 H :    0.088783
  32 H :    0.143147
  33 H :    0.239718
  34 H :    0.118496
  35 H :    0.339064
  36 H :    0.337700
  37 O :   -0.710806
Sum of atomic charges:    0.0000000

LOEWDIN ATOMIC CHARGES
----------------------
   0 C :   -0.123958
   1 C :   -0.100175
   2 C :   -0.130980
   3 C :   -0.104442
   4 C :   -0.411549
   5 C :   -0.135052
   6 H :    0.156407
   7 H :    0.151176
   8 H :    0.159437
   9 Cl:    0.364890
  10 H :    0.155366
  11 C :   -0.197865
  12 C :   -0.259229
  13 H :    0.131841
  14 H :    0.131214
  15 H :    0.140801
  16 N :   -0.026801
  17 O :   -0.046218
  18 O :   -0.025146
  19 N :    0.001004
  20 C :   -0.304053
  21 C :   -0.313395
  22 O :    0.118744
  23 C :   -0.312190
  24 C :   -0.302966
  25 H :    0.137627
  26 H :    0.125057
  27 H :    0.131042
  28 H :    0.121747
  29 H :    0.131227
  30 H :    0.120125
  31 H :    0.125282
  32 H :    0.172955
  33 H :    0.164829
  34 H :    0.136958
  35 H :    0.153874
  36 H :    0.131124
  37 O :   -0.368709

  Mayer bond orders larger than 0.100000
B(  0-C ,  1-C ) :   1.4016 B(  0-C ,  5-C ) :   1.3737 B(  0-C ,  6-H ) :   0.9739
B(  1-C ,  2-C ) :   1.3344 B(  1-C ,  7-H ) :   0.9405 B(  2-C ,  3-C ) :   1.3383
B(  2-C , 11-C ) :   0.8885 B(  3-C ,  4-C ) :   1.3763 B(  3-C ,  8-H ) :   0.9623
B(  4-C ,  5-C ) :   1.3363 B(  4-C ,  9-Cl) :   0.9240 B(  5-C , 10-H ) :   0.9735
B(  7-H , 37-O ) :   0.1262 B( 11-C , 12-C ) :   0.9651 B( 11-C , 16-N ) :   0.8391
B( 11-C , 32-H ) :   0.9527 B( 12-C , 13-H ) :   0.9693 B( 12-C , 14-H ) :   0.9560
B( 12-C , 15-H ) :   0.9603 B( 16-N , 17-O ) :   1.5567 B( 16-N , 18-O ) :   1.6281
B( 17-O , 18-O ) :   0.2149 B( 19-N , 20-C ) :   0.9360 B( 19-N , 24-C ) :   0.9316
B( 19-N , 33-H ) :   0.9040 B( 19-N , 36-H ) :   0.1653 B( 20-C , 21-C ) :   0.9918
B( 20-C , 31-H ) :   0.9496 B( 20-C , 34-H ) :   0.9569 B( 21-C , 22-O ) :   0.9799
B( 21-C , 29-H ) :   0.9630 B( 21-C , 30-H ) :   0.9700 B( 22-O , 23-C ) :   0.9831
B( 23-C , 24-C ) :   0.9878 B( 23-C , 27-H ) :   0.9606 B( 23-C , 28-H ) :   0.9744
B( 24-C , 25-H ) :   0.9531 B( 24-C , 26-H ) :   0.9518 B( 35-H , 37-O ) :   0.8932
B( 36-H , 37-O ) :   0.7899

Dispersion correction           -0.073509476
FINAL SINGLE POINT ENERGY     -1339.124919516543
Dispersion correction            ... done

DIPOLE MOMENT
-------------
                                X             Y             Z
Electronic contribution:    -20.95728      13.16351     -15.92159
Nuclear contribution   :     19.75143     -13.26439      16.58712
                        -----------------------------------------
Total Dipole Moment    :     -1.20586      -0.10088       0.66553
                        -----------------------------------------
Magnitude (a.u.)       :      1.38101
Magnitude (Debye)      :      3.51025

VIBRATIONAL FREQUENCIES
-----------------------

Scaling factor for frequencies =  1.000000000 (already applied!)

   0:         0.00 cm**-1
   1:         0.00 cm**-1
   2:         0.00 cm**-1
   3:         0.00 cm**-1
   4:         0.00 cm**-1
   5:         0.00 cm**-1
   6:       -18.79 cm**-1 ***imaginary mode***
   7:         9.86 cm**-1
   8:        24.67 cm**-1
   9:        31.03 cm**-1
  10:        41.36 cm**-1
  11:        49.72 cm**-1
  12:        56.30 cm**-1
  13:        64.12 cm**-1
  14:        75.62 cm**-1
  15:        78.90 cm**-1
  16:        93.18 cm**-1
  17:       138.71 cm**-1
  18:       179.67 cm**-1
  19:       198.09 cm**-1
  20:       201.48 cm**-1
  21:       244.76 cm**-1
  22:       260.63 cm**-1
  23:       265.84 cm**-1
  24:       290.23 cm**-1
  25:       300.84 cm**-1
  26:       309.67 cm**-1
  27:       374.12 cm**-1
  28:       412.44 cm**-1
  29:       423.13 cm**-1
  30:       445.98 cm**-1
  31:       452.61 cm**-1
  32:       481.74 cm**-1
  33:       488.99 cm**-1
  34:       522.99 cm**-1
  35:       540.10 cm**-1
  36:       607.92 cm**-1
  37:       620.59 cm**-1
  38:       647.10 cm**-1
  39:       701.51 cm**-1
  40:       714.72 cm**-1
  41:       773.56 cm**-1
  42:       816.12 cm**-1
  43:       831.83 cm**-1
  44:       842.65 cm**-1
  45:       854.60 cm**-1
  46:       858.12 cm**-1
  47:       873.00 cm**-1
  48:       882.57 cm**-1
  49:       897.93 cm**-1
  50:       914.82 cm**-1
  51:       942.33 cm**-1
  52:       951.03 cm**-1
  53:      1009.98 cm**-1
  54:      1016.86 cm**-1
  55:      1021.64 cm**-1
  56:      1041.50 cm**-1
  57:      1077.32 cm**-1
  58:      1079.14 cm**-1
  59:      1083.71 cm**-1
  60:      1099.59 cm**-1
  61:      1103.84 cm**-1
  62:      1107.89 cm**-1
  63:      1145.30 cm**-1
  64:      1146.24 cm**-1
  65:      1155.57 cm**-1
  66:      1194.21 cm**-1
  67:      1221.86 cm**-1
  68:      1225.51 cm**-1
  69:      1245.33 cm**-1
  70:      1283.46 cm**-1
  71:      1299.69 cm**-1
  72:      1327.83 cm**-1
  73:      1331.27 cm**-1
  74:      1342.89 cm**-1
  75:      1344.79 cm**-1
  76:      1352.26 cm**-1
  77:      1379.02 cm**-1
  78:      1399.74 cm**-1
  79:      1410.25 cm**-1
  80:      1419.57 cm**-1
  81:      1422.37 cm**-1
  82:      1466.77 cm**-1
  83:      1473.24 cm**-1
  84:      1477.88 cm**-1
  85:      1479.02 cm**-1
  86:      1479.91 cm**-1
  87:      1483.46 cm**-1
  88:      1490.86 cm**-1
  89:      1493.72 cm**-1
  90:      1512.87 cm**-1
  91:      1568.68 cm**-1
  92:      1612.50 cm**-1
  93:      1635.89 cm**-1
  94:      1647.31 cm**-1
  95:      2965.78 cm**-1
  96:      2969.47 cm**-1
  97:      2989.04 cm**-1
  98:      2991.19 cm**-1
  99:      3053.20 cm**-1
 100:      3076.71 cm**-1
 101:      3089.86 cm**-1
 102:      3096.93 cm**-1
 103:      3099.36 cm**-1
 104:      3121.46 cm**-1
 105:      3125.33 cm**-1
 106:      3140.93 cm**-1
 107:      3141.35 cm**-1
 108:      3182.73 cm**-1
 109:      3193.11 cm**-1
 110:      3193.58 cm**-1
 111:      3205.69 cm**-1
 112:      3497.02 cm**-1
 113:      3813.31 cm**-1

IR SPECTRUM
-----------

 Mode   freq       eps      Int      T**2         TX        TY        TZ
       cm**-1   L/(mol*cm) km/mol    a.u.
----------------------------------------------------------------------------
  7:      9.86   0.000112    0.57  0.003544  ( 0.056432 -0.017911 -0.006190)
  8:     24.67   0.000088    0.44  0.001111  (-0.015587 -0.012977  0.026443)
  9:     31.03   0.000457    2.31  0.004596  ( 0.066109 -0.001406 -0.014958)
 10:     41.36   0.000137    0.69  0.001034  ( 0.008532 -0.011999 -0.028581)
 11:     49.72   0.001893    9.57  0.011884  ( 0.094501 -0.052490  0.014080)
 12:     56.30   0.000429    2.17  0.002377  ( 0.042291  0.021263 -0.011684)
 13:     64.12   0.001468    7.42  0.007146  ( 0.065009 -0.053366  0.008469)
 14:     75.62   0.000706    3.57  0.002914  (-0.014110  0.050235  0.013822)
 15:     78.90   0.006735   34.04  0.026638  ( 0.136328 -0.085455  0.027398)
 16:     93.18   0.001086    5.49  0.003638  ( 0.031261  0.050098  0.012300)
 17:    138.71   0.000244    1.23  0.000549  ( 0.018899 -0.012054 -0.006842)
 18:    179.67   0.011193   56.57  0.019442  ( 0.113304 -0.080479 -0.011274)
 19:    198.09   0.003849   19.45  0.006064  ( 0.057115 -0.052769 -0.004155)
 20:    201.48   0.017771   89.81  0.027524  ( 0.094331 -0.136299 -0.006928)
 21:    244.76   0.001009    5.10  0.001286  (-0.030932 -0.016535  0.007495)
 22:    260.63   0.000020    0.10  0.000024  ( 0.002441  0.004101 -0.001212)
 23:    265.84   0.000064    0.32  0.000075  ( 0.001407  0.006475 -0.005556)
 24:    290.23   0.008295   41.92  0.008919  (-0.007846  0.032479 -0.088333)
 25:    300.84   0.000175    0.89  0.000182  (-0.008633  0.003303  0.009817)
 26:    309.67   0.000198    1.00  0.000200  (-0.002695  0.002581  0.013632)
 27:    374.12   0.000098    0.50  0.000082  ( 0.006625  0.002681 -0.005546)
 28:    412.44   0.003075   15.54  0.002326  (-0.015843  0.028651 -0.035418)
 29:    423.13   0.000543    2.74  0.000400  ( 0.009084  0.010653 -0.014295)
 30:    445.98   0.002317   11.71  0.001621  (-0.025077 -0.029670  0.010590)
 31:    452.61   0.000989    5.00  0.000682  ( 0.022333  0.004043 -0.012909)
 32:    481.74   0.000158    0.80  0.000103  (-0.000272 -0.000397 -0.010120)
 33:    488.99   0.003374   17.05  0.002153  ( 0.028256  0.009006 -0.035690)
 34:    522.99   0.012803   64.70  0.007639  ( 0.012523  0.057486 -0.064637)
 35:    540.10   0.001765    8.92  0.001020  (-0.016224  0.024711  0.012085)
 36:    607.92   0.000665    3.36  0.000341  ( 0.015458 -0.009570 -0.003277)
 37:    620.59   0.010498   53.05  0.005279  ( 0.057712  0.035694 -0.025966)
 38:    647.10   0.002668   13.48  0.001287  ( 0.005846  0.009864  0.033991)
 39:    701.51   0.004035   20.39  0.001795  ( 0.006497 -0.039677  0.013360)
 40:    714.72   0.009949   50.28  0.004344  (-0.058876  0.014721  0.025711)
 41:    773.56   0.008429   42.60  0.003400  ( 0.037461 -0.000191 -0.044687)
 42:    816.12   0.009120   46.09  0.003487  ( 0.053613 -0.018748 -0.016169)
 43:    831.83   0.006879   34.76  0.002581  (-0.002451  0.037247 -0.034456)
 44:    842.65   0.014089   71.20  0.005218  (-0.021677 -0.057437  0.038062)
 45:    854.60   0.011872   59.99  0.004335  ( 0.020205 -0.035073  0.051930)
 46:    858.12   0.000847    4.28  0.000308  ( 0.013218 -0.001321 -0.011464)
 47:    873.00   0.038200  193.05  0.013655  (-0.110419 -0.006038  0.037762)
 48:    882.57   0.011802   59.64  0.004173  (-0.038934  0.032014  0.040402)
 49:    897.93   0.005734   28.98  0.001993  (-0.029455  0.033541 -0.000253)
 50:    914.82   0.004224   21.34  0.001441  (-0.032143  0.002806  0.019993)
 51:    942.33   0.005441   27.50  0.001802  ( 0.023532 -0.004360 -0.035061)
 52:    951.03   0.003110   15.72  0.001020  (-0.019675  0.000942  0.025148)
 53:   1009.98   0.000532    2.69  0.000165  (-0.012390  0.002464 -0.002222)
 54:   1016.86   0.000132    0.67  0.000041  (-0.006284  0.000956 -0.000455)
 55:   1021.64   0.001035    5.23  0.000316  ( 0.006454 -0.002086  0.016433)
 56:   1041.50   0.001862    9.41  0.000558  ( 0.022424  0.004512  0.005887)
 57:   1077.32   0.006200   31.33  0.001796  ( 0.017852  0.012998 -0.036170)
 58:   1079.14   0.008403   42.47  0.002430  ( 0.020933  0.025407  0.036693)
 59:   1083.71   0.004573   23.11  0.001317  ( 0.008015 -0.035189 -0.003769)
 60:   1099.59   0.034461  174.15  0.009780  ( 0.023130 -0.094493 -0.017778)
 61:   1103.84   0.007760   39.21  0.002194  (-0.025427  0.021560 -0.032900)
 62:   1107.89   0.000596    3.01  0.000168  ( 0.007786  0.007406 -0.007235)
 63:   1145.30   0.003876   19.59  0.001056  ( 0.025552 -0.019229  0.005784)
 64:   1146.24   0.008166   41.27  0.002223  (-0.016423  0.043790  0.005986)
 65:   1155.57   0.003459   17.48  0.000934  ( 0.018919  0.013391 -0.019924)
 66:   1194.21   0.001000    5.05  0.000261  (-0.001864 -0.015254  0.005013)
 67:   1221.86   0.000899    4.54  0.000230  ( 0.003574 -0.014538 -0.002356)
 68:   1225.51   0.006958   35.16  0.001772  (-0.001537 -0.037176  0.019684)
 69:   1245.33   0.001275    6.44  0.000320  ( 0.006759 -0.016483 -0.001474)
 70:   1283.46   0.002774   14.02  0.000674  ( 0.011973 -0.010603  0.020463)
 71:   1299.69   0.003615   18.27  0.000868  ( 0.000502  0.005304 -0.028976)
 72:   1327.83   0.002936   14.84  0.000690  ( 0.023019  0.007616 -0.010109)
 73:   1331.27   0.006404   32.36  0.001501  ( 0.036229  0.001550  0.013642)
 74:   1342.89   0.009882   49.94  0.002296  (-0.011098  0.046395  0.004557)
 75:   1344.79   0.000963    4.87  0.000223  (-0.007503 -0.005096  0.011882)
 76:   1352.26   0.002980   15.06  0.000688  (-0.014920  0.005679  0.020804)
 77:   1379.02   0.002932   14.82  0.000664  ( 0.002930 -0.025313 -0.003769)
 78:   1399.74   0.007351   37.15  0.001639  ( 0.012490 -0.027842 -0.026604)
 79:   1410.25   0.000946    4.78  0.000209  ( 0.012384  0.004313 -0.006106)
 80:   1419.57   0.030782  155.56  0.006767  ( 0.059375 -0.037877 -0.042505)
 81:   1422.37   0.001336    6.75  0.000293  ( 0.015491  0.001705  0.007092)
 82:   1466.77   0.006014   30.39  0.001280  ( 0.011274 -0.012353  0.031622)
 83:   1473.24   0.001104    5.58  0.000234  (-0.009000  0.011272 -0.005079)
 84:   1477.88   0.002058   10.40  0.000435  (-0.000388  0.000059 -0.020841)
 85:   1479.02   0.000351    1.78  0.000074  (-0.006191 -0.001886 -0.005680)
 86:   1479.91   0.001165    5.89  0.000246  ( 0.003816  0.010810  0.010685)
 87:   1483.46   0.002321   11.73  0.000488  (-0.013662  0.003198 -0.017068)
 88:   1490.86   0.000241    1.22  0.000050  (-0.006471  0.000454 -0.002885)
 89:   1493.72   0.003282   16.58  0.000686  ( 0.010166  0.021852  0.010234)
 90:   1512.87   0.009208   46.53  0.001899  (-0.016892  0.030016 -0.026704)
 91:   1568.68   0.138266  698.74  0.027506  (-0.151168 -0.036699 -0.057508)
 92:   1612.50   0.007698   38.90  0.001490  ( 0.013620 -0.020887  0.029461)
 93:   1635.89   0.003574   18.06  0.000682  (-0.002428  0.025384 -0.005624)
 94:   1647.31   0.018418   93.08  0.003489  ( 0.028751  0.018705  0.048089)
 95:   2965.78   0.031902  161.22  0.003357  (-0.013097 -0.034281  0.044834)
 96:   2969.47   0.030791  155.60  0.003236  ( 0.022919 -0.011874 -0.050691)
 97:   2989.04   0.010635   53.74  0.001110  ( 0.007115 -0.010960 -0.030652)
 98:   2991.19   0.035405  178.92  0.003694  (-0.000939 -0.016790  0.058403)
 99:   3053.20   0.001935    9.78  0.000198  (-0.009704 -0.008712  0.005262)
100:   3076.71   0.007678   38.80  0.000779  ( 0.004121  0.027143 -0.005004)
101:   3089.86   0.004983   25.18  0.000503  (-0.009889  0.018358  0.008270)
102:   3096.93   0.012788   64.63  0.001289  (-0.001105 -0.035673  0.003843)
103:   3099.36   0.016107   81.40  0.001622  ( 0.030221 -0.000280 -0.026615)
104:   3121.46   0.002351   11.88  0.000235  (-0.002413 -0.012097 -0.009102)
105:   3125.33   0.001491    7.54  0.000149  ( 0.000976 -0.011681 -0.003392)
106:   3140.93   0.176383  891.37  0.017524  ( 0.051187  0.048023 -0.112241)
107:   3141.35   0.136256  688.58  0.013536  (-0.058670 -0.025370  0.097211)
108:   3182.73   0.003236   16.35  0.000317  (-0.005255  0.003239 -0.016709)
109:   3193.11   0.000354    1.79  0.000035  ( 0.000154  0.003569 -0.004673)
110:   3193.58   0.001168    5.90  0.000114  (-0.001455 -0.008026  0.006900)
111:   3205.69   0.000270    1.36  0.000026  (-0.001542 -0.004867 -0.000436)
112:   3497.02   0.033168  167.62  0.002960  (-0.049993 -0.011562 -0.018078)
113:   3813.31   0.013514   68.30  0.001106  (-0.023241 -0.021870  0.009355)

--------------------------
THERMOCHEMISTRY AT 298.15K
--------------------------

Temperature         ... 298.15 K
Pressure            ... 1.00 atm
Total Mass          ... 290.75 AMU

Throughout the following assumptions are being made:
  (1) The electronic state is orbitally nondegenerate
  (2) There are no thermally accessible electronically excited states
  (3) Hindered rotations indicated by low frequency modes are not
      treated as such but are treated as vibrations and this may
      cause some error
  (4) All equations used are the standard statistical mechanics
      equations for an ideal gas
  (5) All vibrations are strictly harmonic

freq.       9.86  E(vib)   ...       0.58
freq.      24.67  E(vib)   ...       0.56
freq.      31.03  E(vib)   ...       0.55
freq.      41.36  E(vib)   ...       0.54
freq.      49.72  E(vib)   ...       0.52
freq.      56.30  E(vib)   ...       0.52
freq.      64.12  E(vib)   ...       0.51
freq.      75.62  E(vib)   ...       0.49
freq.      78.90  E(vib)   ...       0.49
freq.      93.18  E(vib)   ...       0.47
freq.     138.71  E(vib)   ...       0.42
freq.     179.67  E(vib)   ...       0.37
freq.     198.09  E(vib)   ...       0.35
freq.     201.48  E(vib)   ...       0.35
freq.     244.76  E(vib)   ...       0.31
freq.     260.63  E(vib)   ...       0.30
freq.     265.84  E(vib)   ...       0.29
freq.     290.23  E(vib)   ...       0.27
freq.     300.84  E(vib)   ...       0.26
freq.     309.67  E(vib)   ...       0.26
freq.     374.12  E(vib)   ...       0.21
freq.     412.44  E(vib)   ...       0.19
freq.     423.13  E(vib)   ...       0.18
freq.     445.98  E(vib)   ...       0.17
freq.     452.61  E(vib)   ...       0.16
freq.     481.74  E(vib)   ...       0.15
freq.     488.99  E(vib)   ...       0.15
freq.     522.99  E(vib)   ...       0.13
freq.     540.10  E(vib)   ...       0.12
freq.     607.92  E(vib)   ...       0.10
freq.     620.59  E(vib)   ...       0.09
freq.     647.10  E(vib)   ...       0.09
freq.     701.51  E(vib)   ...       0.07
freq.     714.72  E(vib)   ...       0.07
freq.     773.56  E(vib)   ...       0.05
freq.     816.12  E(vib)   ...       0.05
freq.     831.83  E(vib)   ...       0.04
freq.     842.65  E(vib)   ...       0.04
freq.     854.60  E(vib)   ...       0.04
freq.     858.12  E(vib)   ...       0.04
freq.     873.00  E(vib)   ...       0.04
freq.     882.57  E(vib)   ...       0.04
freq.     897.93  E(vib)   ...       0.03
freq.     914.82  E(vib)   ...       0.03
freq.     942.33  E(vib)   ...       0.03
freq.     951.03  E(vib)   ...       0.03
freq.    1009.98  E(vib)   ...       0.02
freq.    1016.86  E(vib)   ...       0.02
freq.    1021.64  E(vib)   ...       0.02
freq.    1041.50  E(vib)   ...       0.02
freq.    1077.32  E(vib)   ...       0.02
freq.    1079.14  E(vib)   ...       0.02
freq.    1083.71  E(vib)   ...       0.02
freq.    1099.59  E(vib)   ...       0.02
freq.    1103.84  E(vib)   ...       0.02
freq.    1107.89  E(vib)   ...       0.02
freq.    1145.30  E(vib)   ...       0.01
freq.    1146.24  E(vib)   ...       0.01
freq.    1155.57  E(vib)   ...       0.01
freq.    1194.21  E(vib)   ...       0.01
freq.    1221.86  E(vib)   ...       0.01
freq.    1225.51  E(vib)   ...       0.01
freq.    1245.33  E(vib)   ...       0.01
freq.    1283.46  E(vib)   ...       0.01
freq.    1299.69  E(vib)   ...       0.01
freq.    1327.83  E(vib)   ...       0.01
freq.    1331.27  E(vib)   ...       0.01
freq.    1342.89  E(vib)   ...       0.01
freq.    1344.79  E(vib)   ...       0.01
freq.    1352.26  E(vib)   ...       0.01
freq.    1379.02  E(vib)   ...       0.01
freq.    1399.74  E(vib)   ...       0.00
freq.    1410.25  E(vib)   ...       0.00
freq.    1419.57  E(vib)   ...       0.00
freq.    1422.37  E(vib)   ...       0.00
freq.    1466.77  E(vib)   ...       0.00
freq.    1473.24  E(vib)   ...       0.00
freq.    1477.88  E(vib)   ...       0.00
freq.    1479.02  E(vib)   ...       0.00
freq.    1479.91  E(vib)   ...       0.00
freq.    1483.46  E(vib)   ...       0.00
freq.    1490.86  E(vib)   ...       0.00
freq.    1493.72  E(vib)   ...       0.00
freq.    1512.87  E(vib)   ...       0.00
freq.    1568.68  E(vib)   ...       0.00
freq.    1612.50  E(vib)   ...       0.00
freq.    1635.89  E(vib)   ...       0.00
freq.    1647.31  E(vib)   ...       0.00
freq.    2965.78  E(vib)   ...       0.00
freq.    2969.47  E(vib)   ...       0.00
freq.    2989.04  E(vib)   ...       0.00
freq.    2991.19  E(vib)   ...       0.00
freq.    3053.20  E(vib)   ...       0.00
freq.    3076.71  E(vib)   ...       0.00
freq.    3089.86  E(vib)   ...       0.00
freq.    3096.93  E(vib)   ...       0.00
freq.    3099.36  E(vib)   ...       0.00
freq.    3121.46  E(vib)   ...       0.00
freq.    3125.33  E(vib)   ...       0.00
freq.    3140.93  E(vib)   ...       0.00
freq.    3141.35  E(vib)   ...       0.00
freq.    3182.73  E(vib)   ...       0.00
freq.    3193.11  E(vib)   ...       0.00
freq.    3193.58  E(vib)   ...       0.00
freq.    3205.69  E(vib)   ...       0.00
freq.    3497.02  E(vib)   ...       0.00
freq.    3813.31  E(vib)   ...       0.00

------------
INNER ENERGY
------------

The inner energy is: U= E(el) + E(ZPE) + E(vib) + E(rot) + E(trans)
    E(el)   - is the total energy from the electronic structure calculation
              = E(kin-el) + E(nuc-el) + E(el-el) + E(nuc-nuc)
    E(ZPE)  - the the zero temperature vibrational energy from the frequency calculation
    E(vib)  - the the finite temperature correction to E(ZPE) due to population
              of excited vibrational states
    E(rot)  - is the rotational thermal energy
    E(trans)- is the translational thermal energy

Summary of contributions to the inner energy U:
Electronic energy                ...  -1339.12491952 Eh
Zero point energy                ...      0.30947537 Eh     194.20 kcal/mol
Thermal vibrational correction   ...      0.01767744 Eh      11.09 kcal/mol
Thermal rotational correction    ...      0.00141627 Eh       0.89 kcal/mol
Thermal translational correction ...      0.00141627 Eh       0.89 kcal/mol
-----------------------------------------------------------------------
Total thermal energy                  -1338.79493417 Eh

Summary of corrections to the electronic energy:
(perhaps to be used in another calculation)
Total thermal correction                  0.02050998 Eh      12.87 kcal/mol
Non-thermal (ZPE) correction              0.30947537 Eh     194.20 kcal/mol
-----------------------------------------------------------------------
Total correction                          0.32998534 Eh     207.07 kcal/mol

--------
ENTHALPY
--------

The enthalpy is H = U + kB*T

Rotational constants in cm-1:     0.013644     0.006138     0.005128

                             ****ORCA TERMINATED NORMALLY****
TOTAL RUN TIME: 0 days 1 hours 33 minutes 50 seconds 752 msec
