                         Program Version 5.0.4 -  RELEASE  -
|  1> ! NEB-TS b3lyp D3 def2-TZVP CPCM
|  2>
|  3> %pal
|  4> nprocs 102
|  5> end
|  6>
|  7> %cpcm
|  8> epsilon 78.4
|  9> end
| 10>
| 11> %neb
| 12> NEB_End_XYZFile "end.xyz"
| 13> Nimages 6
| 14> end
| 15>
| 16>
| 17> *XYZfile -1 1 start.xyz
| 18>
| 19>                          ****END OF INPUT****
 Total Charge           Charge          ....   -1
 Multiplicity           Mult            ....    1
 Number of Electrons    NEL             ....   90
Dispersion correction           -0.022572742
FINAL SINGLE POINT ENERGY     -1009.621947899091
Dispersion correction            ... done
Dispersion correction           -0.022734329
FINAL SINGLE POINT ENERGY     -1009.622239793237
Dispersion correction            ... done
Dispersion correction           -0.022944135
FINAL SINGLE POINT ENERGY     -1009.622539714753
Dispersion correction            ... done
FINAL SINGLE POINT ENERGY     -1009.622841177003
FINAL SINGLE POINT ENERGY     -1009.623166014617
FINAL SINGLE POINT ENERGY     -1009.623342697876
FINAL SINGLE POINT ENERGY     -1009.623508103111
FINAL SINGLE POINT ENERGY     -1009.623649184405
FINAL SINGLE POINT ENERGY     -1009.623756727778
FINAL SINGLE POINT ENERGY     -1009.623806211244
FINAL SINGLE POINT ENERGY     -1009.624364846458
FINAL SINGLE POINT ENERGY     -1009.624503870630
FINAL SINGLE POINT ENERGY     -1009.624586235987
FINAL SINGLE POINT ENERGY     -1009.624612668681
FINAL SINGLE POINT ENERGY     -1009.624629253872
FINAL SINGLE POINT ENERGY     -1009.624643459949
FINAL SINGLE POINT ENERGY     -1009.624652076988
Dispersion correction            ... done
Dispersion correction           -0.024179718
FINAL SINGLE POINT ENERGY     -1009.624656714478
Dispersion correction            ... done

CARTESIAN COORDINATES (ANGSTROEM)
---------------------------------
  C     -2.181854   -0.821573   -0.107602
  H     -3.091142   -0.470906   -0.581987
  H     -1.126997   -0.544073   -0.994187
  H     -2.138481   -1.880796    0.117130
  N     -1.872682   -0.052278    1.024276
  O     -1.139355   -0.535213    1.912755
  O     -2.252704    1.133578    1.086690
  C      1.896947    1.274736    0.235080
  O      2.533459    2.143446    0.813742
  O      1.149682    1.517564   -0.801654
  C      1.965825   -0.167986    0.724606
  Cl     3.054513   -1.124868   -0.365533
  H      0.996648   -0.656302    0.715267
  H      2.407497   -0.203373    1.713785
  H     -0.565501    0.024167   -2.558043
  O     -0.184071   -0.303801   -1.732807
  H      0.548216    0.667677   -1.201519

Dispersion correction           -0.024183985
FINAL SINGLE POINT ENERGY     -1009.624659440047
Dispersion correction            ... done
                    ***********************HURRAY********************
 Multiplicity           Mult            ....    1
 Number of Electrons    NEL             ....   90
 Basis Dimension        Dim             ....  358

ORBITAL ENERGIES
----------------

  NO   OCC          E(Eh)            E(eV)
   0   2.0000    -101.518180     -2762.4501
   1   2.0000     -19.128510      -520.5132
   2   2.0000     -19.124260      -520.3976
   3   2.0000     -19.124095      -520.3931
   4   2.0000     -19.101116      -519.7678
   5   2.0000     -19.100829      -519.7600
   6   2.0000     -14.517433      -395.0394
   7   2.0000     -10.295356      -280.1509
   8   2.0000     -10.227514      -278.3048
   9   2.0000     -10.166895      -276.6553
  10   2.0000      -9.450200      -257.1530
  11   2.0000      -7.211753      -196.2418
  12   2.0000      -7.203200      -196.0090
  13   2.0000      -7.203038      -196.0046
  14   2.0000      -1.188306       -32.3355
  15   2.0000      -1.079432       -29.3728
  16   2.0000      -1.010627       -27.5005
  17   2.0000      -0.998243       -27.1636
  18   2.0000      -0.964174       -26.2365
  19   2.0000      -0.854273       -23.2460
  20   2.0000      -0.789249       -21.4766
  21   2.0000      -0.702372       -19.1125
  22   2.0000      -0.587481       -15.9862
  23   2.0000      -0.581900       -15.8343
  24   2.0000      -0.519525       -14.1370
  25   2.0000      -0.515478       -14.0269
  26   2.0000      -0.504634       -13.7318
  27   2.0000      -0.498968       -13.5776
  28   2.0000      -0.476209       -12.9583
  29   2.0000      -0.460800       -12.5390
  30   2.0000      -0.456124       -12.4118
  31   2.0000      -0.432907       -11.7800
  32   2.0000      -0.405513       -11.0346
  33   2.0000      -0.400717       -10.9041
  34   2.0000      -0.394888       -10.7455
  35   2.0000      -0.350191        -9.5292
  36   2.0000      -0.322605        -8.7785
  37   2.0000      -0.308544        -8.3959
  38   2.0000      -0.301818        -8.2129
  39   2.0000      -0.298004        -8.1091
  40   2.0000      -0.293588        -7.9889
  41   2.0000      -0.291260        -7.9256
  42   2.0000      -0.269304        -7.3281
  43   2.0000      -0.266754        -7.2587
  44   2.0000      -0.231424        -6.2974
  45   0.0000      -0.045768        -1.2454
  46   0.0000      -0.020891        -0.5685
  47   0.0000       0.045869         1.2482
  48   0.0000       0.063109         1.7173
  49   0.0000       0.093652         2.5484

-------
TIMINGS
-------

Dispersion correction           -0.024188407
FINAL SINGLE POINT ENERGY     -1009.624661344769
                    ***********************HURRAY************************

DIPOLE MOMENT
-------------
                                X             Y             Z
Electronic contribution:      9.68073      -0.07818       1.62909
Nuclear contribution   :    -10.00164      -2.02448      -3.00148
                        -----------------------------------------
Total Dipole Moment    :     -0.32091      -2.10266      -1.37239
                        -----------------------------------------
Magnitude (a.u.)       :      2.53132
Magnitude (Debye)      :      6.43411

Rotational constants in cm-1:     0.045065     0.019118     0.017508
Rotational constants in MHz :  1351.021247   573.148429   524.870992

                             ****ORCA TERMINATED NORMALLY****
TOTAL RUN TIME: 0 days 1 hours 32 minutes 17 seconds 136 msec
