                         Program Version 5.0.4 -  RELEASE  -
|  1> ! NEB-TS b3lyp D3 def2-TZVP CPCM
|  2>
|  3> %pal
|  4> nprocs 102
|  5> end
|  6>
|  7> %cpcm
|  8> epsilon 78.4
|  9> end
| 10>
| 11> %neb
| 12> NEB_End_XYZFile "end.xyz"
| 13> Nimages 6
| 14> end
| 15>
| 16>
| 17> *XYZfile 0 1 start.xyz
| 18>
| 19>                          ****END OF INPUT****
 Total Charge           Charge          ....    0
 Multiplicity           Mult            ....    1
 Number of Electrons    NEL             ....  154
Dispersion correction           -0.078753644
FINAL SINGLE POINT ENERGY     -1339.092859937045
Dispersion correction            ... done
Dispersion correction           -0.078976057
FINAL SINGLE POINT ENERGY     -1339.093151471935
Dispersion correction            ... done
Dispersion correction           -0.079080842
FINAL SINGLE POINT ENERGY     -1339.093396390862
Dispersion correction            ... done
FINAL SINGLE POINT ENERGY     -1339.093761782167
FINAL SINGLE POINT ENERGY     -1339.094208788205
FINAL SINGLE POINT ENERGY     -1339.094569738921
FINAL SINGLE POINT ENERGY     -1339.095115681962
FINAL SINGLE POINT ENERGY     -1339.095450551589
FINAL SINGLE POINT ENERGY     -1339.095917306993
FINAL SINGLE POINT ENERGY     -1339.096509700638
FINAL SINGLE POINT ENERGY     -1339.097224873173
FINAL SINGLE POINT ENERGY     -1339.097208530832
FINAL SINGLE POINT ENERGY     -1339.097226887327
FINAL SINGLE POINT ENERGY     -1339.097231458380
FINAL SINGLE POINT ENERGY     -1339.097231385127
FINAL SINGLE POINT ENERGY     -1339.097230788115
FINAL SINGLE POINT ENERGY     -1339.097231474601
Dispersion correction            ... done
Dispersion correction           -0.079203767
FINAL SINGLE POINT ENERGY     -1339.097232213741
Dispersion correction            ... done

CARTESIAN COORDINATES (ANGSTROEM)
---------------------------------
  C     -1.607590    2.468743    0.987934
  C     -1.680048    1.082756    1.031291
  C     -1.893220    0.336564   -0.132333
  C     -2.039245    1.017768   -1.342785
  C     -1.952034    2.401201   -1.367021
  C     -1.736291    3.148361   -0.218080
  H     -1.433644    3.027548    1.898559
  H     -1.554578    0.570936    1.975759
  H     -2.207360    0.481434   -2.264482
  Cl    -2.122897    3.229945   -2.905340
  H     -1.667383    4.226021   -0.265393
  C     -1.999204   -1.154665   -0.003800
  C     -3.246080   -1.645877    0.707102
  H     -3.162543   -2.699928    0.967719
  H     -4.143705   -1.510213    0.097037
  H     -3.369827   -1.075505    1.626846
  N     -1.706682   -1.886568   -1.201222
  O     -2.315119   -2.935433   -1.441107
  O     -0.764802   -1.512831   -1.933451
  N      1.509072   -0.427830   -0.436915
  C      2.729787   -1.206988   -0.783521
  C      3.764090   -1.024029    0.312335
  O      4.065681    0.354429    0.511925
  C      2.902314    1.083590    0.895815
  C      1.826411    1.001874   -0.170409
  H      0.915524    1.498523    0.157780
  H      2.168660    1.453112   -1.101898
  H      3.204783    2.119886    1.036059
  H      2.518951    0.694869    1.847400
  H      4.692131   -1.517969    0.029416
  H      3.400751   -1.463542    1.249610
  H      3.108414   -0.843717   -1.738918
  H     -0.960627   -1.468447    0.736246
  H      0.815007   -0.509144   -1.187206
  H      2.446219   -2.254032   -0.880990
  H      0.342766   -2.553414    1.429120
  H      1.010621   -0.898353    0.423068
  O      0.141698   -1.609076    1.453853

Dispersion correction           -0.079199216
FINAL SINGLE POINT ENERGY     -1339.097233503814
Dispersion correction            ... done
                    ***********************HURRAY********************
 Multiplicity           Mult            ....    1
 Number of Electrons    NEL             ....  154
 Basis Dimension        Dim             ....  709

ORBITAL ENERGIES
----------------

  NO   OCC          E(Eh)            E(eV)
   0   2.0000    -101.527446     -2762.7023
   1   2.0000     -19.142722      -520.9000
   2   2.0000     -19.140018      -520.8264
   3   2.0000     -19.139788      -520.8201
   4   2.0000     -19.075559      -519.0724
   5   2.0000     -14.528507      -395.3408
   6   2.0000     -14.385913      -391.4606
   7   2.0000     -10.236227      -278.5419
   8   2.0000     -10.223686      -278.2006
   9   2.0000     -10.223254      -278.1889
  10   2.0000     -10.215377      -277.9745
  11   2.0000     -10.213871      -277.9336
  12   2.0000     -10.200269      -277.5634
  13   2.0000     -10.197182      -277.4794
  14   2.0000     -10.182946      -277.0921
  15   2.0000     -10.182215      -277.0721
  16   2.0000     -10.181229      -277.0453
  17   2.0000     -10.175991      -276.9028
  18   2.0000     -10.161366      -276.5048
  19   2.0000      -9.459600      -257.4088
  20   2.0000      -7.220875      -196.4900
  21   2.0000      -7.212807      -196.2704
  22   2.0000      -7.212500      -196.2621
  23   2.0000      -1.206276       -32.8244
  24   2.0000      -1.050339       -28.5812
  25   2.0000      -1.029386       -28.0110
  26   2.0000      -0.973030       -26.4775
  27   2.0000      -0.930840       -25.3294
  28   2.0000      -0.895348       -24.3636
  29   2.0000      -0.852264       -23.1913
  30   2.0000      -0.818150       -22.2630
  31   2.0000      -0.790334       -21.5061
  32   2.0000      -0.752539       -20.4776
  33   2.0000      -0.736233       -20.0339
  34   2.0000      -0.718490       -19.5511
  35   2.0000      -0.696240       -18.9457
  36   2.0000      -0.670292       -18.2396
  37   2.0000      -0.629944       -17.1416
  38   2.0000      -0.606174       -16.4948
  39   2.0000      -0.605476       -16.4758
  40   2.0000      -0.573758       -15.6128
  41   2.0000      -0.553799       -15.0696
  42   2.0000      -0.534918       -14.5558
  43   2.0000      -0.531263       -14.4564
  44   2.0000      -0.517879       -14.0922
  45   2.0000      -0.507589       -13.8122
  46   2.0000      -0.496655       -13.5147
  47   2.0000      -0.490148       -13.3376
  48   2.0000      -0.479762       -13.0550
  49   2.0000      -0.475929       -12.9507
  50   2.0000      -0.469069       -12.7640
  51   2.0000      -0.457253       -12.4425
  52   2.0000      -0.449351       -12.2275
  53   2.0000      -0.440425       -11.9846
  54   2.0000      -0.429944       -11.6994
  55   2.0000      -0.416472       -11.3328
  56   2.0000      -0.415275       -11.3002
  57   2.0000      -0.409857       -11.1528
  58   2.0000      -0.396959       -10.8018
  59   2.0000      -0.391275       -10.6471
  60   2.0000      -0.388985       -10.5848
  61   2.0000      -0.380376       -10.3506
  62   2.0000      -0.371365       -10.1054
  63   2.0000      -0.368570       -10.0293
  64   2.0000      -0.361051        -9.8247
  65   2.0000      -0.349954        -9.5227
  66   2.0000      -0.335993        -9.1428
  67   2.0000      -0.326030        -8.8717
  68   2.0000      -0.318236        -8.6596
  69   2.0000      -0.309901        -8.4328
  70   2.0000      -0.307213        -8.3597
  71   2.0000      -0.287410        -7.8208
  72   2.0000      -0.278321        -7.5735
  73   2.0000      -0.270721        -7.3667
  74   2.0000      -0.267666        -7.2836
  75   2.0000      -0.252722        -6.8769
  76   2.0000      -0.219445        -5.9714
  77   0.0000      -0.063988        -1.7412
  78   0.0000      -0.022115        -0.6018
  79   0.0000      -0.018147        -0.4938
  80   0.0000       0.023586         0.6418
  81   0.0000       0.035075         0.9545

-------
TIMINGS
-------

Dispersion correction           -0.079196991
FINAL SINGLE POINT ENERGY     -1339.097234860593
                    ***********************HURRAY************************

DIPOLE MOMENT
-------------
                                X             Y             Z
Electronic contribution:    -12.53659      12.60077     -16.63305
Nuclear contribution   :     15.04928     -11.44915      17.69643
                        -----------------------------------------
Total Dipole Moment    :      2.51269       1.15162       1.06338
                        -----------------------------------------
Magnitude (a.u.)       :      2.96152
Magnitude (Debye)      :      7.52759

Rotational constants in cm-1:     0.012025     0.008157     0.006266
Rotational constants in MHz :   360.514444   244.537779   187.839859

                             ****ORCA TERMINATED NORMALLY****
TOTAL RUN TIME: 0 days 9 hours 29 minutes 47 seconds 942 msec
