                         Program Version 5.0.0 -  RELEASE  -
|  1> !  opt B3LYP def2-TZVP CPCM D3
|  2> %pal nprocs 18 end
|  3> %cpcm epsilon 78.4 end
|  4> *xyz 0 1
|  5> C   0.56394 -0.78932 0.40612
|  6> H   0.50232 -1.71486 -0.14036
|  7> H   0.65864 0.10677 -0.18496
|  8> H   2.40252 -0.72932 0.31126
|  9> N   0.24849 -0.73365 1.69824
| 10> O   0.19979 0.36 2.31543
| 11> O   0.00763 -1.77481 2.3584
| 12> H   3.09773 -2.16866 0.18438
| 13> O   3.25667 -1.26342 0.64883
| 14> H   3.99311 -0.84927 0.06192
| 15> *
| 16>
| 17>                          ****END OF INPUT****
 Total Charge           Charge          ....    0
 Multiplicity           Mult            ....    1
 Number of Electrons    NEL             ....   42
 Basis Dimension        Dim             ....  185

ORBITAL ENERGIES
----------------

  NO   OCC          E(Eh)            E(eV)
   0   2.0000     -19.270746      -524.3837
   1   2.0000     -19.095498      -519.6149
   2   2.0000     -19.094490      -519.5875
   3   2.0000     -14.499027      -394.5386
   4   2.0000     -10.167229      -276.6644
   5   2.0000      -1.168105       -31.7858
   6   2.0000      -1.138992       -30.9935
   7   2.0000      -0.980462       -26.6797
   8   2.0000      -0.798080       -21.7169
   9   2.0000      -0.611056       -16.6277
  10   2.0000      -0.603926       -16.4337
  11   2.0000      -0.564655       -15.3650
  12   2.0000      -0.500613       -13.6224
  13   2.0000      -0.487898       -13.2764
  14   2.0000      -0.484984       -13.1971
  15   2.0000      -0.477699       -12.9989
  16   2.0000      -0.399688       -10.8761
  17   2.0000      -0.287102        -7.8124
  18   2.0000      -0.272041        -7.4026
  19   2.0000      -0.243279        -6.6200
  20   2.0000      -0.218267        -5.9393
  21   0.0000      -0.030173        -0.8210
  22   0.0000       0.006772         0.1843
  23   0.0000       0.060782         1.6540
  24   0.0000       0.086293         2.3481
  25   0.0000       0.124257         3.3812

MULLIKEN ATOMIC CHARGES
-----------------------
   0 C :   -0.580605
   1 H :    0.172553
   2 H :    0.163844
   3 H :    0.396442
   4 N :    0.450720
   5 O :   -0.546219
   6 O :   -0.546029
   7 H :    0.448314
   8 O :   -0.398986
   9 H :    0.439966
Sum of atomic charges:    0.0000000

LOEWDIN ATOMIC CHARGES
----------------------
   0 C :   -0.441037
   1 H :    0.109758
   2 H :    0.112194
   3 H :    0.225067
   4 N :   -0.113506
   5 O :   -0.250310
   6 O :   -0.247885
   7 H :    0.281644
   8 O :    0.044018
   9 H :    0.280055

  Mayer bond orders larger than 0.100000
B(  0-C ,  1-H ) :   0.9524 B(  0-C ,  2-H ) :   0.9392 B(  0-C ,  3-H ) :   0.1679
B(  0-C ,  4-N ) :   1.3303 B(  0-C ,  5-O ) :   0.1749 B(  0-C ,  6-O ) :   0.1644
B(  3-H ,  8-O ) :   0.6618 B(  4-N ,  5-O ) :   1.3700 B(  4-N ,  6-O ) :   1.3717
B(  7-H ,  8-O ) :   0.7953 B(  8-O ,  9-H ) :   0.7945

Dispersion correction           -0.009094810
FINAL SINGLE POINT ENERGY      -321.378006594394
Dispersion correction            ... done
Dispersion correction           -0.009068158
FINAL SINGLE POINT ENERGY      -321.384862063850
Dispersion correction            ... done
Dispersion correction           -0.009060645
FINAL SINGLE POINT ENERGY      -321.388311572626
Dispersion correction            ... done
FINAL SINGLE POINT ENERGY      -321.390949076474
FINAL SINGLE POINT ENERGY      -321.395260173137
FINAL SINGLE POINT ENERGY      -321.399470644286
FINAL SINGLE POINT ENERGY      -321.404027981939
FINAL SINGLE POINT ENERGY      -321.408485971777
FINAL SINGLE POINT ENERGY      -321.413763095275
FINAL SINGLE POINT ENERGY      -321.419924051100
FINAL SINGLE POINT ENERGY      -321.457208996545
FINAL SINGLE POINT ENERGY      -321.457250593208
FINAL SINGLE POINT ENERGY      -321.457255765548
FINAL SINGLE POINT ENERGY      -321.457283004483
FINAL SINGLE POINT ENERGY      -321.457303384772
FINAL SINGLE POINT ENERGY      -321.457327577830
FINAL SINGLE POINT ENERGY      -321.457346032838
Dispersion correction           -0.007612252
FINAL SINGLE POINT ENERGY      -321.457331838707
Dispersion correction            ... done
Dispersion correction           -0.007612577
FINAL SINGLE POINT ENERGY      -321.457373249424
Dispersion correction            ... done

CARTESIAN COORDINATES (ANGSTROEM)
---------------------------------
  C      0.749566   -0.882425    0.595291
  H      0.292812   -1.672575    0.011068
  H      0.761111    0.065673    0.061052
  H      1.756770   -1.138379    0.918819
  N     -0.069318   -0.676273    1.823750
  O      0.342143    0.132286    2.642474
  O     -1.102177   -1.315246    1.950530
  H      4.219622   -2.107330   -0.301362
  O      4.132141   -1.336783    0.272671
  H      3.848170   -0.625488   -0.315032

Dispersion correction           -0.007629068
FINAL SINGLE POINT ENERGY      -321.457383255557
Dispersion correction            ... done

DIPOLE MOMENT
-------------
                                X             Y             Z
Electronic contribution:     -4.24554       0.75863       4.14349
Nuclear contribution   :      5.79246      -1.20808      -6.25439
                        -----------------------------------------
Total Dipole Moment    :      1.54693      -0.44946      -2.11089
                        -----------------------------------------
Magnitude (a.u.)       :      2.65535
Magnitude (Debye)      :      6.74935

Rotational constants in cm-1:     0.332714     0.052135     0.047524
Rotational constants in MHz :  9974.516189  1562.976962  1424.733818

                             ****ORCA TERMINATED NORMALLY****
TOTAL RUN TIME: 0 days 0 hours 9 minutes 47 seconds 679 msec
