                         Program Version 5.0.4 -  RELEASE  -
|  1> !  NUMFREQ B3LYP def2-TZVP CPCM D3
|  2> %pal nprocs 102 end
|  3> %cpcm epsilon 78.4 end
|  4> *xyz 0 1
|  5> C   -2.06939539131135 2.45354954609385 1.03530822976736
|  6> C   -2.07771527175634 1.0673342374543 1.11129860332761
|  7> C   -2.07855038472903 0.2816831753952 -0.0450192735145
|  8> C   -2.08899716659043 0.92394978709842 -1.28522184238825
|  9> C   -2.06891356363235 2.30864124421283 -1.34085505614284
| 10> C   -2.05562748426732 3.0951418823151 -0.19796120294418
| 11> H   -2.06002619629085 3.04373885478479 1.94276985794587
| 12> H   -2.07102114220764 0.58747654015699 2.08099110717573
| 13> H   -2.09388897389087 0.35545328127485 -2.20291052504821
| 14> Cl   -2.06035884108588 3.09140851139141 -2.91333273397704
| 15> H   -2.03559171284198 4.17349576667233 -0.27097742838525
| 16> C   -2.1199365153638 -1.20824968030542 0.11110560131266
| 17> C   -3.44759926808235 -1.75771148434758 0.60066196686761
| 18> H   -3.35389805660944 -2.79189480909686 0.92810515139852
| 19> H   -4.21823103342369 -1.70911051387393 -0.17457625275982
| 20> H   -3.78015916716484 -1.15966305149545 1.44846977774998
| 21> N   -1.56320187149129 -1.9532669766087 -0.97758102806154
| 22> O   -2.01404218977492 -3.08106419857148 -1.23380149275538
| 23> O   -0.56124497467204 -1.51269715107199 -1.57129695011804
| 24> N   1.82069986852636 -0.53106798287724 0.99595369206567
| 25> C   2.48812832292896 -1.52174257221151 0.0983134675133
| 26> C   3.69795775116254 -0.90713886514402 -0.58870764311899
| 27> C   3.31953438179935 0.37117554887677 -1.34005146142736
| 28> C   2.625134509341 1.36102137196102 -0.40269237594541
| 29> C   1.4273383439953 0.71976170305293 0.27926004554759
| 30> H   -1.22096391048299 -1.48567794857159 1.03657285976189
| 31> H   2.75719482381525 -2.38090994813677 0.71070207043181
| 32> H   1.73459818095576 -1.82945475667384 -0.62663302326897
| 33> H   4.12444210236062 -1.64701870453607 -1.26858908573702
| 34> H   4.46163037904329 -0.68068598867001 0.16237294163181
| 35> H   4.20944388010397 0.82685404166714 -1.77787497334209
| 36> H   2.64510957995744 0.12136169031066 -2.16541974853083
| 37> H   2.2788120662297 2.23936545508318 -0.95061833038197
| 38> H   3.33141087244319 1.71172319688403 0.35676909881411
| 39> H   0.96566097383617 1.37982103205911 1.01073392114235
| 40> H   0.67127669631181 0.42660106213112 -0.44677067064268
| 41> H   2.45161001573144 -0.29509942875075 1.76222285865965
| 42> H   -0.60736604263147 -1.33862947531546 2.7452973369915
| 43> H   0.93402423161949 -0.99996424863661 1.43580861316319
| 44> O   -0.29727782186078 -1.74851014398076 1.92817389722215
| 45> *
| 46>
| 47>                          ****END OF INPUT****

CARTESIAN COORDINATES (ANGSTROEM)
---------------------------------
  C     -2.069395    2.453550    1.035308
  C     -2.077715    1.067334    1.111299
  C     -2.078550    0.281683   -0.045019
  C     -2.088997    0.923950   -1.285222
  C     -2.068914    2.308641   -1.340855
  C     -2.055627    3.095142   -0.197961
  H     -2.060026    3.043739    1.942770
  H     -2.071021    0.587477    2.080991
  H     -2.093889    0.355453   -2.202911
  Cl    -2.060359    3.091409   -2.913333
  H     -2.035592    4.173496   -0.270977
  C     -2.119937   -1.208250    0.111106
  C     -3.447599   -1.757711    0.600662
  H     -3.353898   -2.791895    0.928105
  H     -4.218231   -1.709111   -0.174576
  H     -3.780159   -1.159663    1.448470
  N     -1.563202   -1.953267   -0.977581
  O     -2.014042   -3.081064   -1.233801
  O     -0.561245   -1.512697   -1.571297
  N      1.820700   -0.531068    0.995954
  C      2.488128   -1.521743    0.098313
  C      3.697958   -0.907139   -0.588708
  C      3.319534    0.371176   -1.340051
  C      2.625135    1.361021   -0.402692
  C      1.427338    0.719762    0.279260
  H     -1.220964   -1.485678    1.036573
  H      2.757195   -2.380910    0.710702
  H      1.734598   -1.829455   -0.626633
  H      4.124442   -1.647019   -1.268589
  H      4.461630   -0.680686    0.162373
  H      4.209444    0.826854   -1.777875
  H      2.645110    0.121362   -2.165420
  H      2.278812    2.239365   -0.950618
  H      3.331411    1.711723    0.356769
  H      0.965661    1.379821    1.010734
  H      0.671277    0.426601   -0.446771
  H      2.451610   -0.295099    1.762223
  H     -0.607366   -1.338629    2.745297
  H      0.934024   -0.999964    1.435809
  O     -0.297278   -1.748510    1.928174

 Total Charge           Charge          ....    0
 Multiplicity           Mult            ....    1
 Number of Electrons    NEL             ....  154
 Basis Dimension        Dim             ....  721

ORBITAL ENERGIES
----------------

  NO   OCC          E(Eh)            E(eV)
   0   2.0000    -101.526335     -2762.6720
   1   2.0000     -19.134712      -520.6820
   2   2.0000     -19.132339      -520.6174
   3   2.0000     -19.074895      -519.0543
   4   2.0000     -14.522017      -395.1642
   5   2.0000     -14.383572      -391.3969
   6   2.0000     -10.234104      -278.4841
   7   2.0000     -10.207806      -277.7685
   8   2.0000     -10.205150      -277.6963
   9   2.0000     -10.195159      -277.4244
  10   2.0000     -10.193454      -277.3780
  11   2.0000     -10.180276      -277.0194
  12   2.0000     -10.180082      -277.0141
  13   2.0000     -10.179244      -276.9913
  14   2.0000     -10.173610      -276.8380
  15   2.0000     -10.168549      -276.7003
  16   2.0000     -10.167817      -276.6804
  17   2.0000     -10.163937      -276.5748
  18   2.0000     -10.159684      -276.4590
  19   2.0000      -9.458498      -257.3788
  20   2.0000      -7.219751      -196.4594
  21   2.0000      -7.211711      -196.2406
  22   2.0000      -7.211413      -196.2325
  23   2.0000      -1.198948       -32.6250
  24   2.0000      -1.021957       -27.8089
  25   2.0000      -0.974469       -26.5166
  26   2.0000      -0.930972       -25.3330
  27   2.0000      -0.893256       -24.3067
  28   2.0000      -0.849181       -23.1074
  29   2.0000      -0.814689       -22.1688
  30   2.0000      -0.800619       -21.7859
  31   2.0000      -0.768879       -20.9223
  32   2.0000      -0.749808       -20.4033
  33   2.0000      -0.733781       -19.9672
  34   2.0000      -0.693055       -18.8590
  35   2.0000      -0.662875       -18.0377
  36   2.0000      -0.637121       -17.3369
  37   2.0000      -0.626959       -17.0604
  38   2.0000      -0.602861       -16.4047
  39   2.0000      -0.591039       -16.0830
  40   2.0000      -0.561665       -15.2837
  41   2.0000      -0.538988       -14.6666
  42   2.0000      -0.531950       -14.4751
  43   2.0000      -0.525877       -14.3099
  44   2.0000      -0.508591       -13.8395
  45   2.0000      -0.501614       -13.6496
  46   2.0000      -0.493596       -13.4314
  47   2.0000      -0.471070       -12.8185
  48   2.0000      -0.466403       -12.6915
  49   2.0000      -0.459517       -12.5041
  50   2.0000      -0.453251       -12.3336
  51   2.0000      -0.441012       -12.0005
  52   2.0000      -0.428392       -11.6571
  53   2.0000      -0.427680       -11.6378
  54   2.0000      -0.423918       -11.5354
  55   2.0000      -0.412990       -11.2380
  56   2.0000      -0.407553       -11.0901
  57   2.0000      -0.398039       -10.8312
  58   2.0000      -0.394046       -10.7225
  59   2.0000      -0.388980       -10.5847
  60   2.0000      -0.386719       -10.5231
  61   2.0000      -0.364851        -9.9281
  62   2.0000      -0.360451        -9.8084
  63   2.0000      -0.359138        -9.7726
  64   2.0000      -0.353124        -9.6090
  65   2.0000      -0.333515        -9.0754
  66   2.0000      -0.330660        -8.9977
  67   2.0000      -0.326679        -8.8894
  68   2.0000      -0.325811        -8.8658
  69   2.0000      -0.317001        -8.6260
  70   2.0000      -0.302989        -8.2447
  71   2.0000      -0.299938        -8.1617
  72   2.0000      -0.280101        -7.6219
  73   2.0000      -0.272670        -7.4197
  74   2.0000      -0.263571        -7.1721
  75   2.0000      -0.249830        -6.7982
  76   2.0000      -0.216399        -5.8885
  77   0.0000      -0.057292        -1.5590
  78   0.0000      -0.019642        -0.5345
  79   0.0000      -0.015473        -0.4210
  80   0.0000       0.024253         0.6599
  81   0.0000       0.030771         0.8373

MULLIKEN ATOMIC CHARGES
-----------------------
   0 C :   -0.147273
   1 C :   -0.204776
   2 C :    0.171339
   3 C :   -0.256033
   4 C :    0.208910
   5 C :   -0.206416
   6 H :    0.143956
   7 H :    0.139086
   8 H :    0.130074
   9 Cl:   -0.150296
  10 H :    0.146270
  11 C :   -0.137235
  12 C :   -0.358796
  13 H :    0.120683
  14 H :    0.117073
  15 H :    0.129234
  16 N :    0.444040
  17 O :   -0.432597
  18 O :   -0.450230
  19 N :   -0.126431
  20 C :   -0.154463
  21 C :   -0.189837
  22 C :   -0.164799
  23 C :   -0.189479
  24 C :   -0.184808
  25 H :    0.270150
  26 H :    0.144809
  27 H :    0.138825
  28 H :    0.119557
  29 H :    0.109539
  30 H :    0.111110
  31 H :    0.100315
  32 H :    0.120394
  33 H :    0.111086
  34 H :    0.150474
  35 H :    0.162527
  36 H :    0.270692
  37 H :    0.321212
  38 H :    0.288998
  39 O :   -0.816884
Sum of atomic charges:   -0.0000000

LOEWDIN ATOMIC CHARGES
----------------------
   0 C :   -0.134977
   1 C :   -0.111170
   2 C :   -0.136452
   3 C :   -0.118793
   4 C :   -0.416606
   5 C :   -0.153535
   6 H :    0.153081
   7 H :    0.153755
   8 H :    0.152783
   9 Cl:    0.347935
  10 H :    0.151661
  11 C :   -0.284029
  12 C :   -0.285043
  13 H :    0.122097
  14 H :    0.123173
  15 H :    0.131402
  16 N :   -0.035248
  17 O :   -0.126231
  18 O :   -0.125395
  19 N :    0.195749
  20 C :   -0.240965
  21 C :   -0.255512
  22 C :   -0.253889
  23 C :   -0.254381
  24 C :   -0.242786
  25 H :    0.185551
  26 H :    0.141471
  27 H :    0.139917
  28 H :    0.144791
  29 H :    0.142196
  30 H :    0.137818
  31 H :    0.139792
  32 H :    0.145137
  33 H :    0.141926
  34 H :    0.142748
  35 H :    0.145412
  36 H :    0.215475
  37 H :    0.127117
  38 H :    0.177874
  39 O :   -0.483849

  Mayer bond orders larger than 0.100000
B(  0-C ,  1-C ) :   1.4136 B(  0-C ,  5-C ) :   1.3694 B(  0-C ,  6-H ) :   0.9771
B(  1-C ,  2-C ) :   1.2903 B(  1-C ,  7-H ) :   0.9708 B(  2-C ,  3-C ) :   1.3208
B(  2-C , 11-C ) :   0.9263 B(  3-C ,  4-C ) :   1.3691 B(  3-C ,  8-H ) :   0.9832
B(  4-C ,  5-C ) :   1.3398 B(  4-C ,  9-Cl) :   0.9095 B(  5-C , 10-H ) :   0.9765
B( 11-C , 12-C ) :   0.9280 B( 11-C , 16-N ) :   1.0345 B( 11-C , 25-H ) :   0.4906
B( 11-C , 39-O ) :  -0.1100 B( 12-C , 13-H ) :   0.9712 B( 12-C , 14-H ) :   0.9691
B( 12-C , 15-H ) :   0.9700 B( 16-N , 17-O ) :   1.4989 B( 16-N , 18-O ) :   1.4405
B( 17-O , 18-O ) :   0.1355 B( 19-N , 20-C ) :   0.9097 B( 19-N , 24-C ) :   0.9102
B( 19-N , 36-H ) :   0.8868 B( 19-N , 38-H ) :   0.7002 B( 20-C , 21-C ) :   0.9997
B( 20-C , 26-H ) :   0.9590 B( 20-C , 27-H ) :   0.9577 B( 21-C , 22-C ) :   0.9738
B( 21-C , 28-H ) :   0.9625 B( 21-C , 29-H ) :   0.9606 B( 22-C , 23-C ) :   0.9725
B( 22-C , 30-H ) :   0.9663 B( 22-C , 31-H ) :   0.9637 B( 23-C , 24-C ) :   0.9959
B( 23-C , 32-H ) :   0.9660 B( 23-C , 33-H ) :   0.9639 B( 24-C , 34-H ) :   0.9516
B( 24-C , 35-H ) :   0.9643 B( 25-H , 39-O ) :   0.4803 B( 37-H , 39-O ) :   0.8970
B( 38-H , 39-O ) :   0.2900

Dispersion correction           -0.082726541
FINAL SINGLE POINT ENERGY     -1303.193184431330
Dispersion correction            ... done

DIPOLE MOMENT
-------------
                                X             Y             Z
Electronic contribution:    -18.01186      11.89839     -15.04445
Nuclear contribution   :     21.46397      -9.33031      17.87993
                        -----------------------------------------
Total Dipole Moment    :      3.45211       2.56808       2.83549
                        -----------------------------------------
Magnitude (a.u.)       :      5.15287
Magnitude (Debye)      :     13.09756

VIBRATIONAL FREQUENCIES
-----------------------

Scaling factor for frequencies =  1.000000000 (already applied!)

   0:         0.00 cm**-1
   1:         0.00 cm**-1
   2:         0.00 cm**-1
   3:         0.00 cm**-1
   4:         0.00 cm**-1
   5:         0.00 cm**-1
   6:     -1157.92 cm**-1 ***imaginary mode***
   7:        16.46 cm**-1
   8:        30.25 cm**-1
   9:        40.98 cm**-1
  10:        53.55 cm**-1
  11:        71.39 cm**-1
  12:        77.31 cm**-1
  13:        83.82 cm**-1
  14:       104.14 cm**-1
  15:       110.62 cm**-1
  16:       124.33 cm**-1
  17:       164.75 cm**-1
  18:       193.35 cm**-1
  19:       214.69 cm**-1
  20:       239.98 cm**-1
  21:       241.44 cm**-1
  22:       264.38 cm**-1
  23:       277.52 cm**-1
  24:       309.69 cm**-1
  25:       312.47 cm**-1
  26:       375.68 cm**-1
  27:       389.74 cm**-1
  28:       392.14 cm**-1
  29:       423.83 cm**-1
  30:       425.52 cm**-1
  31:       453.62 cm**-1
  32:       457.69 cm**-1
  33:       459.49 cm**-1
  34:       532.27 cm**-1
  35:       562.14 cm**-1
  36:       605.50 cm**-1
  37:       617.20 cm**-1
  38:       632.50 cm**-1
  39:       675.12 cm**-1
  40:       712.34 cm**-1
  41:       732.90 cm**-1
  42:       795.05 cm**-1
  43:       798.21 cm**-1
  44:       811.76 cm**-1
  45:       813.60 cm**-1
  46:       850.95 cm**-1
  47:       857.68 cm**-1
  48:       872.99 cm**-1
  49:       885.55 cm**-1
  50:       906.06 cm**-1
  51:       911.58 cm**-1
  52:       939.22 cm**-1
  53:       956.33 cm**-1
  54:       977.33 cm**-1
  55:       985.39 cm**-1
  56:      1019.63 cm**-1
  57:      1039.13 cm**-1
  58:      1040.69 cm**-1
  59:      1061.72 cm**-1
  60:      1071.08 cm**-1
  61:      1090.36 cm**-1
  62:      1091.04 cm**-1
  63:      1106.94 cm**-1
  64:      1122.32 cm**-1
  65:      1132.80 cm**-1
  66:      1148.00 cm**-1
  67:      1191.61 cm**-1
  68:      1192.81 cm**-1
  69:      1203.56 cm**-1
  70:      1261.19 cm**-1
  71:      1294.31 cm**-1
  72:      1296.90 cm**-1
  73:      1301.42 cm**-1
  74:      1344.80 cm**-1
  75:      1345.95 cm**-1
  76:      1359.89 cm**-1
  77:      1370.53 cm**-1
  78:      1371.90 cm**-1
  79:      1376.55 cm**-1
  80:      1391.07 cm**-1
  81:      1392.59 cm**-1
  82:      1420.98 cm**-1
  83:      1426.63 cm**-1
  84:      1438.00 cm**-1
  85:      1444.46 cm**-1
  86:      1456.10 cm**-1
  87:      1470.57 cm**-1
  88:      1474.91 cm**-1
  89:      1476.81 cm**-1
  90:      1483.37 cm**-1
  91:      1484.46 cm**-1
  92:      1493.41 cm**-1
  93:      1507.29 cm**-1
  94:      1512.66 cm**-1
  95:      1560.53 cm**-1
  96:      1584.13 cm**-1
  97:      1601.90 cm**-1
  98:      1634.20 cm**-1
  99:      1686.28 cm**-1
 100:      2187.07 cm**-1
 101:      3021.11 cm**-1
 102:      3022.01 cm**-1
 103:      3026.46 cm**-1
 104:      3030.56 cm**-1
 105:      3071.57 cm**-1
 106:      3079.34 cm**-1
 107:      3081.66 cm**-1
 108:      3086.43 cm**-1
 109:      3093.31 cm**-1
 110:      3093.83 cm**-1
 111:      3121.86 cm**-1
 112:      3128.07 cm**-1
 113:      3143.32 cm**-1
 114:      3177.86 cm**-1
 115:      3191.55 cm**-1
 116:      3205.62 cm**-1
 117:      3214.47 cm**-1
 118:      3459.26 cm**-1
 119:      3786.90 cm**-1

IR SPECTRUM
-----------

 Mode   freq       eps      Int      T**2         TX        TY        TZ
       cm**-1   L/(mol*cm) km/mol    a.u.
----------------------------------------------------------------------------
  7:     16.46   0.000479    2.42  0.009085  ( 0.049955 -0.057410  0.057387)
  8:     30.25   0.000304    1.53  0.003133  ( 0.050094  0.012485  0.021625)
  9:     40.98   0.000798    4.03  0.006076  ( 0.052707  0.042229  0.038919)
 10:     53.55   0.000677    3.42  0.003948  (-0.050869  0.030528  0.020704)
 11:     71.39   0.000389    1.97  0.001703  (-0.014035  0.031338 -0.022882)
 12:     77.31   0.003389   17.13  0.013680  (-0.055580  0.017318 -0.101444)
 13:     83.82   0.000116    0.59  0.000433  ( 0.005145 -0.017257 -0.010425)
 14:    104.14   0.000537    2.72  0.001610  (-0.035489 -0.016923 -0.008024)
 15:    110.62   0.001540    7.78  0.004346  (-0.035938  0.046147 -0.030409)
 16:    124.33   0.001363    6.89  0.003420  (-0.033274  0.021092  0.043222)
 17:    164.75   0.000574    2.90  0.001087  (-0.029989 -0.013224  0.003557)
 18:    193.35   0.000692    3.50  0.001116  ( 0.029244  0.016120  0.001118)
 19:    214.69   0.000056    0.28  0.000081  ( 0.007529  0.004858 -0.000974)
 20:    239.98   0.002848   14.39  0.003704  ( 0.042298  0.016077 -0.040698)
 21:    241.44   0.012124   61.27  0.015670  ( 0.073370  0.059540 -0.082109)
 22:    264.38   0.002356   11.91  0.002781  (-0.043312  0.029462 -0.006109)
 23:    277.52   0.004877   24.65  0.005484  (-0.048758 -0.051339  0.021707)
 24:    309.69   0.000346    1.75  0.000349  (-0.002596 -0.006375  0.017353)
 25:    312.47   0.007902   39.93  0.007891  (-0.007280 -0.034444  0.081559)
 26:    375.68   0.004120   20.82  0.003423  ( 0.014444 -0.038284  0.041814)
 27:    389.74   0.005370   27.14  0.004300  (-0.008765 -0.060057 -0.024827)
 28:    392.14   0.003139   15.86  0.002498  (-0.020405 -0.044525 -0.009943)
 29:    423.83   0.020147  101.82  0.014834  (-0.036690 -0.099037  0.060660)
 30:    425.52   0.001454    7.35  0.001066  (-0.018431  0.026723 -0.003522)
 31:    453.62   0.001214    6.14  0.000835  ( 0.028626 -0.002858 -0.002776)
 32:    457.69   0.007279   36.78  0.004963  (-0.006313 -0.033276  0.061772)
 33:    459.49   0.020672  104.47  0.014039  (-0.031440 -0.051660  0.101893)
 34:    532.27   0.003163   15.98  0.001854  ( 0.005078 -0.006507 -0.042265)
 35:    562.14   0.016855   85.18  0.009357  ( 0.024432  0.052968 -0.077163)
 36:    605.50   0.004168   21.06  0.002148  (-0.043538  0.013873 -0.007744)
 37:    617.20   0.020068  101.42  0.010147  ( 0.099280  0.002720  0.016819)
 38:    632.50   0.012313   62.22  0.006075  (-0.060926 -0.022196 -0.043247)
 39:    675.12   0.003389   17.13  0.001566  ( 0.033601  0.009947 -0.018397)
 40:    712.34   0.011942   60.35  0.005232  (-0.071814 -0.005157  0.006901)
 41:    732.90   0.008170   41.29  0.003479  ( 0.024212 -0.050526  0.018431)
 42:    795.05   0.006419   32.44  0.002520  (-0.003097 -0.030770  0.039538)
 43:    798.21   0.008517   43.04  0.003330  (-0.056969  0.009158 -0.000520)
 44:    811.76   0.000220    1.11  0.000085  ( 0.007523 -0.002369 -0.004748)
 45:    813.60   0.000861    4.35  0.000330  ( 0.012541  0.008446 -0.010072)
 46:    850.95   0.000942    4.76  0.000345  ( 0.007958  0.002394 -0.016624)
 47:    857.68   0.003475   17.56  0.001264  (-0.028994  0.001822  0.020506)
 48:    872.99   0.000546    2.76  0.000195  ( 0.008888  0.002839 -0.010405)
 49:    885.55   0.000585    2.96  0.000206  ( 0.000033  0.014329 -0.000933)
 50:    906.06   0.001958    9.89  0.000674  (-0.024772 -0.001067 -0.007713)
 51:    911.58   0.000875    4.42  0.000300  (-0.015257 -0.000547 -0.008152)
 52:    939.22   0.009065   45.81  0.003012  ( 0.019311 -0.040979  0.030982)
 53:    956.33   0.003380   17.08  0.001103  ( 0.014612 -0.029790 -0.001468)
 54:    977.33   0.005373   27.16  0.001716  (-0.029094 -0.013837  0.026035)
 55:    985.39   0.000172    0.87  0.000054  (-0.005898 -0.001633  0.004128)
 56:   1019.63   0.001564    7.90  0.000479  ( 0.001636  0.010458 -0.019144)
 57:   1039.13   0.001501    7.58  0.000451  (-0.008256 -0.012708  0.014866)
 58:   1040.69   0.002844   14.37  0.000853  (-0.015854  0.020782  0.013022)
 59:   1061.72   0.004496   22.72  0.001321  (-0.007266 -0.011616 -0.033670)
 60:   1071.08   0.005784   29.23  0.001685  (-0.033616  0.023464  0.002120)
 61:   1090.36   0.001645    8.32  0.000471  (-0.008306  0.020019  0.001086)
 62:   1091.04   0.011599   58.62  0.003318  (-0.019923 -0.022294 -0.049230)
 63:   1106.94   0.004618   23.34  0.001302  ( 0.003789  0.027316 -0.023265)
 64:   1122.32   0.004291   21.69  0.001193  (-0.031682  0.013739  0.000799)
 65:   1132.80   0.001058    5.35  0.000291  (-0.008445  0.014814  0.000798)
 66:   1148.00   0.005517   27.88  0.001500  (-0.019621  0.015153  0.029750)
 67:   1191.61   0.000450    2.27  0.000118  (-0.000019 -0.010699  0.001804)
 68:   1192.81   0.000149    0.75  0.000039  ( 0.005161 -0.000979 -0.003388)
 69:   1203.56   0.000311    1.57  0.000081  (-0.006929  0.000934 -0.005633)
 70:   1261.19   0.010786   54.51  0.002669  (-0.032128 -0.005896  0.040023)
 71:   1294.31   0.000096    0.49  0.000023  (-0.003946 -0.001728  0.002152)
 72:   1296.90   0.000103    0.52  0.000025  (-0.002324 -0.004210  0.001251)
 73:   1301.42   0.002561   12.94  0.000614  (-0.007575 -0.017200  0.016150)
 74:   1344.80   0.000860    4.34  0.000199  (-0.009333 -0.009261 -0.005156)
 75:   1345.95   0.000232    1.17  0.000054  (-0.003303  0.000315  0.006545)
 76:   1359.89   0.000241    1.22  0.000055  ( 0.004706  0.004376 -0.003747)
 77:   1370.53   0.061217  309.37  0.013939  ( 0.073523 -0.085981 -0.033770)
 78:   1371.90   0.021846  110.40  0.004969  ( 0.035447 -0.059091 -0.014867)
 79:   1376.55   0.000189    0.96  0.000043  (-0.002521  0.005975  0.000897)
 80:   1391.07   0.007470   37.75  0.001676  (-0.026330 -0.028794  0.012383)
 81:   1392.59   0.001550    7.83  0.000347  (-0.008098 -0.015151  0.007230)
 82:   1420.98   0.047929  242.21  0.010526  ( 0.101361 -0.009459 -0.012742)
 83:   1426.63   0.015234   76.98  0.003332  ( 0.012314 -0.055462 -0.010229)
 84:   1438.00   0.064051  323.69  0.013900  ( 0.064025  0.095422 -0.026365)
 85:   1444.46   0.024603  124.34  0.005315  ( 0.008248  0.071361 -0.012449)
 86:   1456.10   0.031993  161.68  0.006857  ( 0.052987  0.059576  0.022356)
 87:   1470.57   0.003625   18.32  0.000769  (-0.009801  0.022681 -0.012601)
 88:   1474.91   0.000786    3.97  0.000166  ( 0.008454 -0.006692  0.007079)
 89:   1476.81   0.001872    9.46  0.000396  ( 0.012920  0.006911  0.013448)
 90:   1483.37   0.007365   37.22  0.001549  (-0.001691 -0.022324 -0.032375)
 91:   1484.46   0.005250   26.53  0.001104  (-0.020320 -0.025980  0.003967)
 92:   1493.41   0.003110   15.72  0.000650  ( 0.004850 -0.025017  0.000759)
 93:   1507.29   0.008632   43.62  0.001787  (-0.037183 -0.019154  0.006133)
 94:   1512.66   0.005853   29.58  0.001207  (-0.003647  0.030136 -0.016909)
 95:   1560.53   0.005918   29.91  0.001183  ( 0.003671 -0.033802  0.005238)
 96:   1584.13   0.004110   20.77  0.000810  ( 0.001330 -0.028053  0.004569)
 97:   1601.90   0.013351   67.47  0.002601  ( 0.006198  0.021012 -0.046054)
 98:   1634.20   0.011252   56.86  0.002149  (-0.010850 -0.044957 -0.003139)
 99:   1686.28   0.010252   51.81  0.001897  (-0.015957 -0.007846 -0.039764)
100:   2187.07   0.646205  3265.65  0.092204  ( 0.237496  0.128016 -0.139327)
101:   3021.11   0.008565   43.29  0.000885  ( 0.028605  0.008145 -0.000371)
102:   3022.01   0.002633   13.30  0.000272  ( 0.009868  0.006936 -0.011242)
103:   3026.46   0.004757   24.04  0.000490  ( 0.007287 -0.019982 -0.006171)
104:   3030.56   0.016653   84.16  0.001715  ( 0.023514  0.005291  0.033674)
105:   3071.57   0.001997   10.09  0.000203  (-0.004323 -0.008703  0.010416)
106:   3079.34   0.010209   51.59  0.001035  ( 0.022041  0.018056 -0.014926)
107:   3081.66   0.009543   48.23  0.000966  (-0.028180  0.006975 -0.011120)
108:   3086.43   0.013779   69.63  0.001393  (-0.003680 -0.030423 -0.021308)
109:   3093.31   0.005923   29.93  0.000598  (-0.005272  0.008416 -0.022336)
110:   3093.83   0.004758   24.05  0.000480  (-0.016475  0.012785 -0.006713)
111:   3121.86   0.005682   28.71  0.000568  ( 0.003215 -0.023481 -0.002502)
112:   3128.07   0.003261   16.48  0.000325  ( 0.006943 -0.011298  0.012227)
113:   3143.32   0.002438   12.32  0.000242  ( 0.006155 -0.006621 -0.012661)
114:   3177.86   0.001205    6.09  0.000118  ( 0.000592 -0.010183 -0.003780)
115:   3191.55   0.002390   12.08  0.000234  (-0.000398 -0.002456  0.015084)
116:   3205.62   0.000551    2.78  0.000054  (-0.000004 -0.005237 -0.005120)
117:   3214.47   0.000060    0.30  0.000006  (-0.002208  0.000688 -0.000664)
118:   3459.26   0.009500   48.01  0.000857  ( 0.018893  0.007043  0.021223)
119:   3786.90   0.008981   45.38  0.000740  ( 0.003750 -0.005968 -0.026275)

--------------------------
THERMOCHEMISTRY AT 298.15K
--------------------------

Temperature         ... 298.15 K
Pressure            ... 1.00 atm
Total Mass          ... 288.77 AMU

Throughout the following assumptions are being made:
  (1) The electronic state is orbitally nondegenerate
  (2) There are no thermally accessible electronically excited states
  (3) Hindered rotations indicated by low frequency modes are not
      treated as such but are treated as vibrations and this may
      cause some error
  (4) All equations used are the standard statistical mechanics
      equations for an ideal gas
  (5) All vibrations are strictly harmonic

freq.      16.46  E(vib)   ...       0.57
freq.      30.25  E(vib)   ...       0.55
freq.      40.98  E(vib)   ...       0.54
freq.      53.55  E(vib)   ...       0.52
freq.      71.39  E(vib)   ...       0.50
freq.      77.31  E(vib)   ...       0.49
freq.      83.82  E(vib)   ...       0.48
freq.     104.14  E(vib)   ...       0.46
freq.     110.62  E(vib)   ...       0.45
freq.     124.33  E(vib)   ...       0.43
freq.     164.75  E(vib)   ...       0.39
freq.     193.35  E(vib)   ...       0.36
freq.     214.69  E(vib)   ...       0.34
freq.     239.98  E(vib)   ...       0.31
freq.     241.44  E(vib)   ...       0.31
freq.     264.38  E(vib)   ...       0.29
freq.     277.52  E(vib)   ...       0.28
freq.     309.69  E(vib)   ...       0.26
freq.     312.47  E(vib)   ...       0.25
freq.     375.68  E(vib)   ...       0.21
freq.     389.74  E(vib)   ...       0.20
freq.     392.14  E(vib)   ...       0.20
freq.     423.83  E(vib)   ...       0.18
freq.     425.52  E(vib)   ...       0.18
freq.     453.62  E(vib)   ...       0.16
freq.     457.69  E(vib)   ...       0.16
freq.     459.49  E(vib)   ...       0.16
freq.     532.27  E(vib)   ...       0.13
freq.     562.14  E(vib)   ...       0.11
freq.     605.50  E(vib)   ...       0.10
freq.     617.20  E(vib)   ...       0.09
freq.     632.50  E(vib)   ...       0.09
freq.     675.12  E(vib)   ...       0.08
freq.     712.34  E(vib)   ...       0.07
freq.     732.90  E(vib)   ...       0.06
freq.     795.05  E(vib)   ...       0.05
freq.     798.21  E(vib)   ...       0.05
freq.     811.76  E(vib)   ...       0.05
freq.     813.60  E(vib)   ...       0.05
freq.     850.95  E(vib)   ...       0.04
freq.     857.68  E(vib)   ...       0.04
freq.     872.99  E(vib)   ...       0.04
freq.     885.55  E(vib)   ...       0.04
freq.     906.06  E(vib)   ...       0.03
freq.     911.58  E(vib)   ...       0.03
freq.     939.22  E(vib)   ...       0.03
freq.     956.33  E(vib)   ...       0.03
freq.     977.33  E(vib)   ...       0.03
freq.     985.39  E(vib)   ...       0.02
freq.    1019.63  E(vib)   ...       0.02
freq.    1039.13  E(vib)   ...       0.02
freq.    1040.69  E(vib)   ...       0.02
freq.    1061.72  E(vib)   ...       0.02
freq.    1071.08  E(vib)   ...       0.02
freq.    1090.36  E(vib)   ...       0.02
freq.    1091.04  E(vib)   ...       0.02
freq.    1106.94  E(vib)   ...       0.02
freq.    1122.32  E(vib)   ...       0.01
freq.    1132.80  E(vib)   ...       0.01
freq.    1148.00  E(vib)   ...       0.01
freq.    1191.61  E(vib)   ...       0.01
freq.    1192.81  E(vib)   ...       0.01
freq.    1203.56  E(vib)   ...       0.01
freq.    1261.19  E(vib)   ...       0.01
freq.    1294.31  E(vib)   ...       0.01
freq.    1296.90  E(vib)   ...       0.01
freq.    1301.42  E(vib)   ...       0.01
freq.    1344.80  E(vib)   ...       0.01
freq.    1345.95  E(vib)   ...       0.01
freq.    1359.89  E(vib)   ...       0.01
freq.    1370.53  E(vib)   ...       0.01
freq.    1371.90  E(vib)   ...       0.01
freq.    1376.55  E(vib)   ...       0.01
freq.    1391.07  E(vib)   ...       0.00
freq.    1392.59  E(vib)   ...       0.00
freq.    1420.98  E(vib)   ...       0.00
freq.    1426.63  E(vib)   ...       0.00
freq.    1438.00  E(vib)   ...       0.00
freq.    1444.46  E(vib)   ...       0.00
freq.    1456.10  E(vib)   ...       0.00
freq.    1470.57  E(vib)   ...       0.00
freq.    1474.91  E(vib)   ...       0.00
freq.    1476.81  E(vib)   ...       0.00
freq.    1483.37  E(vib)   ...       0.00
freq.    1484.46  E(vib)   ...       0.00
freq.    1493.41  E(vib)   ...       0.00
freq.    1507.29  E(vib)   ...       0.00
freq.    1512.66  E(vib)   ...       0.00
freq.    1560.53  E(vib)   ...       0.00
freq.    1584.13  E(vib)   ...       0.00
freq.    1601.90  E(vib)   ...       0.00
freq.    1634.20  E(vib)   ...       0.00
freq.    1686.28  E(vib)   ...       0.00
freq.    2187.07  E(vib)   ...       0.00
freq.    3021.11  E(vib)   ...       0.00
freq.    3022.01  E(vib)   ...       0.00
freq.    3026.46  E(vib)   ...       0.00
freq.    3030.56  E(vib)   ...       0.00
freq.    3071.57  E(vib)   ...       0.00
freq.    3079.34  E(vib)   ...       0.00
freq.    3081.66  E(vib)   ...       0.00
freq.    3086.43  E(vib)   ...       0.00
freq.    3093.31  E(vib)   ...       0.00
freq.    3093.83  E(vib)   ...       0.00
freq.    3121.86  E(vib)   ...       0.00
freq.    3128.07  E(vib)   ...       0.00
freq.    3143.32  E(vib)   ...       0.00
freq.    3177.86  E(vib)   ...       0.00
freq.    3191.55  E(vib)   ...       0.00
freq.    3205.62  E(vib)   ...       0.00
freq.    3214.47  E(vib)   ...       0.00
freq.    3459.26  E(vib)   ...       0.00
freq.    3786.90  E(vib)   ...       0.00

------------
INNER ENERGY
------------

The inner energy is: U= E(el) + E(ZPE) + E(vib) + E(rot) + E(trans)
    E(el)   - is the total energy from the electronic structure calculation
              = E(kin-el) + E(nuc-el) + E(el-el) + E(nuc-nuc)
    E(ZPE)  - the the zero temperature vibrational energy from the frequency calculation
    E(vib)  - the the finite temperature correction to E(ZPE) due to population
              of excited vibrational states
    E(rot)  - is the rotational thermal energy
    E(trans)- is the translational thermal energy

Summary of contributions to the inner energy U:
Electronic energy                ...  -1303.19318443 Eh
Zero point energy                ...      0.32973799 Eh     206.91 kcal/mol
Thermal vibrational correction   ...      0.01724691 Eh      10.82 kcal/mol
Thermal rotational correction    ...      0.00141627 Eh       0.89 kcal/mol
Thermal translational correction ...      0.00141627 Eh       0.89 kcal/mol
-----------------------------------------------------------------------
Total thermal energy                  -1302.84336699 Eh

Summary of corrections to the electronic energy:
(perhaps to be used in another calculation)
Total thermal correction                  0.02007945 Eh      12.60 kcal/mol
Non-thermal (ZPE) correction              0.32973799 Eh     206.91 kcal/mol
-----------------------------------------------------------------------
Total correction                          0.34981744 Eh     219.51 kcal/mol

Rotational constants in cm-1:     0.011562     0.008651     0.006592

                             ****ORCA TERMINATED NORMALLY****
TOTAL RUN TIME: 0 days 1 hours 25 minutes 3 seconds 103 msec
