                         Program Version 5.0.4 -  RELEASE  -
|  1> !  opt B3LYP def2-TZVP CPCM D3
|  2> %pal nprocs 102 end
|  3> %cpcm epsilon 78.4 end
|  4> *xyz -1 1
|  5> C   -0.80163 1.17051 0.01907
|  6> C   0.54035 1.16033 0.37713
|  7> C   1.29307 -0.01788 0.28723
|  8> C   0.68731 -1.19598 -0.15115
|  9> C   -0.65869 -1.20598 -0.50678
| 10> C   -1.39351 -0.01991 -0.42119
| 11> H   -1.38705 2.09519 0.08186
| 12> H   1.00541 2.089 0.72489
| 13> H   1.2528 -2.12993 -0.22492
| 14> C   2.74452 0.03205 0.69523
| 15> H   2.82647 0.51968 1.73239
| 16> C   3.44606 -1.3177 0.75773
| 17> H   4.49308 -1.22253 1.0875
| 18> H   3.46042 -1.84483 -0.20655
| 19> H   2.94865 -1.98081 1.48567
| 20> N   3.51499 0.91132 -0.24424
| 21> O   4.68449 1.14756 0.01828
| 22> O   2.96521 1.37036 -1.23099
| 23> O   2.5427 1.26596 5.95487
| 24> H   2.20381 0.5955 6.48792
| 25> H   -1.13127 -2.13339 -0.84833
| 26> N   -2.78709 -0.02162 -0.79634
| 27> O   -3.3258 -1.0802 -1.09529
| 28> O   -3.40525 1.03586 -0.80857
| 29> H   1.60852 0.09085 3.54568
| 30> H   2.52788 0.74038 4.75983
| 31> O   2.51578 0.26073 3.71071
| 32> *
| 33>
| 34>                          ****END OF INPUT****
 Total Charge           Charge          ....   -1
 Multiplicity           Mult            ....    1
 Number of Electrons    NEL             ....  122
Dispersion correction           -0.048135591
FINAL SINGLE POINT ENERGY      -872.228955598480
Dispersion correction            ... done
Dispersion correction           -0.048205112
FINAL SINGLE POINT ENERGY      -872.235659347327
Dispersion correction            ... done
Dispersion correction           -0.048140965
FINAL SINGLE POINT ENERGY      -872.235373203740
Dispersion correction            ... done
FINAL SINGLE POINT ENERGY      -872.237079300629
FINAL SINGLE POINT ENERGY      -872.237323681285
FINAL SINGLE POINT ENERGY      -872.237538743469
FINAL SINGLE POINT ENERGY      -872.237972747623
FINAL SINGLE POINT ENERGY      -872.238267230360
FINAL SINGLE POINT ENERGY      -872.238534068382
FINAL SINGLE POINT ENERGY      -872.238787020395
FINAL SINGLE POINT ENERGY      -872.243447867479
FINAL SINGLE POINT ENERGY      -872.243444061608
FINAL SINGLE POINT ENERGY      -872.243432130235
FINAL SINGLE POINT ENERGY      -872.243443639760
FINAL SINGLE POINT ENERGY      -872.243437409539
FINAL SINGLE POINT ENERGY      -872.243443261179
FINAL SINGLE POINT ENERGY      -872.243442642144
Dispersion correction            ... done
Dispersion correction           -0.048309693
FINAL SINGLE POINT ENERGY      -872.243423922322
Dispersion correction            ... done
Dispersion correction           -0.048303934
FINAL SINGLE POINT ENERGY      -872.243433314868
Dispersion correction            ... done
                    ***********************HURRAY********************

CARTESIAN COORDINATES (ANGSTROEM)
---------------------------------
  C     -1.057527    0.363602    0.777817
  C      0.263682    0.286989    1.191299
  C      1.243709   -0.224248    0.341536
  C      0.889557   -0.659797   -0.937511
  C     -0.423272   -0.583796   -1.369300
  C     -1.380694   -0.073368   -0.499672
  H     -1.823734    0.757548    1.427891
  H      0.548855    0.626629    2.178923
  H      1.643871   -1.056912   -1.604546
  C      2.665419   -0.336191    0.834867
  H      2.726001    0.115247    1.851194
  C      3.198304   -1.755250    0.861908
  H      4.200905   -1.784531    1.284447
  H      3.216558   -2.207115   -0.130093
  H      2.539203   -2.346562    1.498665
  N      3.551307    0.578067    0.008345
  O      4.638484    0.173072   -0.371289
  O      3.144572    1.715570   -0.190418
  O      2.525164    2.650586    5.277272
  H      2.907977    2.339927    6.104637
  H     -0.705855   -0.913902   -2.357152
  N     -2.772929    0.006461   -0.946330
  O     -3.042500   -0.377882   -2.077956
  O     -3.607976    0.453338   -0.169072
  H      2.025839    0.035676    3.930548
  H      2.580808    1.841472    4.626969
  O      2.675503    0.689891    3.648661

 Multiplicity           Mult            ....    1
 Number of Electrons    NEL             ....  122
 Basis Dimension        Dim             ....  562

ORBITAL ENERGIES
----------------

  NO   OCC          E(Eh)            E(eV)
   0   2.0000     -19.167954      -521.5865
   1   2.0000     -19.167902      -521.5851
   2   2.0000     -19.165871      -521.5299
   3   2.0000     -19.162102      -521.4273
   4   2.0000     -19.067887      -518.8636
   5   2.0000     -19.019203      -517.5388
   6   2.0000     -14.561299      -396.2331
   7   2.0000     -14.547103      -395.8468
   8   2.0000     -10.237953      -278.5889
   9   2.0000     -10.221087      -278.1299
  10   2.0000     -10.206508      -277.7332
  11   2.0000     -10.198999      -277.5289
  12   2.0000     -10.198302      -277.5099
  13   2.0000     -10.191388      -277.3218
  14   2.0000     -10.187696      -277.2213
  15   2.0000     -10.165601      -276.6201
  16   2.0000      -1.241348       -33.7788
  17   2.0000      -1.234127       -33.5823
  18   2.0000      -1.065746       -29.0004
  19   2.0000      -1.060388       -28.8546
  20   2.0000      -0.948112       -25.7994
  21   2.0000      -0.896506       -24.3952
  22   2.0000      -0.865287       -23.5457
  23   2.0000      -0.845695       -23.0125
  24   2.0000      -0.793186       -21.5837
  25   2.0000      -0.771224       -20.9861
  26   2.0000      -0.702917       -19.1273
  27   2.0000      -0.698194       -18.9988
  28   2.0000      -0.635713       -17.2986
  29   2.0000      -0.609110       -16.5747
  30   2.0000      -0.582835       -15.8597
  31   2.0000      -0.570546       -15.5253
  32   2.0000      -0.549374       -14.9492
  33   2.0000      -0.547773       -14.9057
  34   2.0000      -0.541083       -14.7236
  35   2.0000      -0.529141       -14.3987
  36   2.0000      -0.523107       -14.2345
  37   2.0000      -0.483600       -13.1594
  38   2.0000      -0.474438       -12.9101
  39   2.0000      -0.466328       -12.6894
  40   2.0000      -0.458134       -12.4665
  41   2.0000      -0.443343       -12.0640
  42   2.0000      -0.422907       -11.5079
  43   2.0000      -0.406052       -11.0492
  44   2.0000      -0.394459       -10.7338
  45   2.0000      -0.381084       -10.3698
  46   2.0000      -0.368635       -10.0311
  47   2.0000      -0.365433        -9.9439
  48   2.0000      -0.359908        -9.7936
  49   2.0000      -0.337516        -9.1843
  50   2.0000      -0.330361        -8.9896
  51   2.0000      -0.328731        -8.9452
  52   2.0000      -0.325251        -8.8505
  53   2.0000      -0.316250        -8.6056
  54   2.0000      -0.308745        -8.4014
  55   2.0000      -0.304193        -8.2775
  56   2.0000      -0.277497        -7.5511
  57   2.0000      -0.277057        -7.5391
  58   2.0000      -0.272041        -7.4026
  59   2.0000      -0.224502        -6.1090
  60   2.0000      -0.218450        -5.9443
  61   0.0000      -0.103453        -2.8151
  62   0.0000      -0.073849        -2.0095
  63   0.0000      -0.030218        -0.8223
  64   0.0000      -0.009739        -0.2650
  65   0.0000       0.043629         1.1872

MULLIKEN ATOMIC CHARGES
-----------------------
   0 C :   -0.181318
   1 C :   -0.150580
   2 C :    0.148465
   3 C :   -0.188836
   4 C :   -0.170662
   5 C :    0.143784
   6 H :    0.166483
   7 H :    0.093510
   8 H :    0.159069
   9 C :    0.043358
  10 H :    0.134158
  11 C :   -0.366521
  12 H :    0.135117
  13 H :    0.135109
  14 H :    0.136399
  15 N :    0.413357
  16 O :   -0.348573
  17 O :   -0.365176
  18 O :   -0.824375
  19 H :    0.318743
  20 H :    0.167602
  21 N :    0.447098
  22 O :   -0.354990
  23 O :   -0.354855
  24 H :    0.286763
  25 H :    0.358328
  26 O :   -0.981455
Sum of atomic charges:   -1.0000000

LOEWDIN ATOMIC CHARGES
----------------------
   0 C :   -0.081251
   1 C :   -0.084963
   2 C :   -0.110135
   3 C :   -0.080474
   4 C :   -0.082178
   5 C :   -0.157049
   6 H :    0.161734
   7 H :    0.151809
   8 H :    0.163107
   9 C :   -0.222726
  10 H :    0.172019
  11 C :   -0.271547
  12 H :    0.128133
  13 H :    0.128193
  14 H :    0.138011
  15 N :   -0.030596
  16 O :   -0.049499
  17 O :   -0.062555
  18 O :   -0.467154
  19 H :    0.136718
  20 H :    0.161974
  21 N :   -0.013406
  22 O :   -0.053004
  23 O :   -0.053085
  24 H :    0.093070
  25 H :    0.113385
  26 O :   -0.728531

  Mayer bond orders larger than 0.100000
B(  0-C ,  1-C ) :   1.4396 B(  0-C ,  5-C ) :   1.3549 B(  0-C ,  6-H ) :   0.9523
B(  1-C ,  2-C ) :   1.3615 B(  1-C ,  7-H ) :   0.9317 B(  2-C ,  3-C ) :   1.3200
B(  2-C ,  9-C ) :   0.8881 B(  3-C ,  4-C ) :   1.4411 B(  3-C ,  8-H ) :   0.9760
B(  4-C ,  5-C ) :   1.3396 B(  4-C , 20-H ) :   0.9506 B(  5-C , 21-N ) :   0.9985
B(  7-H , 26-O ) :   0.1829 B(  9-C , 10-H ) :   0.8684 B(  9-C , 11-C ) :   0.9439
B(  9-C , 15-N ) :   0.8438 B( 10-H , 26-O ) :   0.2470 B( 11-C , 12-H ) :   0.9679
B( 11-C , 13-H ) :   0.9598 B( 11-C , 14-H ) :   0.9667 B( 15-N , 16-O ) :   1.6203
B( 15-N , 17-O ) :   1.6126 B( 16-O , 17-O ) :   0.1933 B( 18-O , 19-H ) :   0.9045
B( 18-O , 25-H ) :   0.6883 B( 21-N , 22-O ) :   1.5934 B( 21-N , 23-O ) :   1.5935
B( 22-O , 23-O ) :   0.1886 B( 24-H , 26-O ) :   0.9235 B( 25-H , 26-O ) :   0.2746

Dispersion correction           -0.048305977
FINAL SINGLE POINT ENERGY      -872.243435418312

DIPOLE MOMENT
-------------
                                X             Y             Z
Electronic contribution:    -11.96236       0.95225     -16.10081
Nuclear contribution   :      9.84717      -4.81256      12.41014
                        -----------------------------------------
Total Dipole Moment    :     -2.11518      -3.86031      -3.69067
                        -----------------------------------------
Magnitude (a.u.)       :      5.74431
Magnitude (Debye)      :     14.60087

Rotational constants in cm-1:     0.020837     0.008581     0.006745
Rotational constants in MHz :   624.692125   257.236985   202.211369

                             ****ORCA TERMINATED NORMALLY****
TOTAL RUN TIME: 0 days 1 hours 1 minutes 7 seconds 433 msec
