                         Program Version 5.0.4 -  RELEASE  -
|  1> !  NUMFREQ B3LYP def2-TZVP CPCM D3
|  2> %pal nprocs 102 end
|  3> %cpcm epsilon 78.4 end
|  4> *xyz -1 1
|  5> C   0.75464106988156 3.32776814511743 2.00171725625088
|  6> C   1.30896856093744 2.05249101071087 1.95868500493507
|  7> C   0.49370121555443 0.94114154063679 1.76418940190437
|  8> C   -0.88246861842619 1.11384997052822 1.61144241001311
|  9> C   -1.41387817357137 2.39298569791523 1.64718460027702
| 10> C   -0.61345589005481 3.51131813944539 1.84377583699424
| 11> H   1.39190935255354 4.18932141608431 2.1546946561778
| 12> H   2.37586868177493 1.91045621197386 2.07397801186246
| 13> H   -1.53458729995063 0.2635391336305 1.4602840577132
| 14> Cl   -3.1430058641592 2.60294701590368 1.44272207453936
| 15> H   -1.05181038799267 4.49917885159294 1.87088055683062
| 16> C   1.09263010782792 -0.44487238259075 1.76655212130059
| 17> C   0.60970324088863 -1.32142622922739 2.90556614907726
| 18> H   1.10347345873824 -2.29169666740609 2.88964464848915
| 19> H   -0.46989472429659 -1.47101262089898 2.87807531950069
| 20> H   0.86475936491457 -0.82147131881858 3.84076914937691
| 21> N   0.83543845301885 -1.0981000099206 0.41717995022083
| 22> O   1.12849411789138 -0.45061170011752 -0.5790050402943
| 23> O   0.40197107120892 -2.23895415026277 0.37651726209398
| 24> H   2.20041190619189 -0.36105583689524 1.78308866395
| 25> O   6.48871184531891 -0.85001615720616 2.14298172648373
| 26> H   6.93543040646553 -0.14043591213989 2.61670171725832
| 27> H   5.51779769108416 -0.50708894708206 1.98281441887493
| 28> H   4.06328236076692 0.56467312332117 1.05144911348795
| 29> O   4.0937108334335 -0.0603152042944 1.78440016268165
| 30> *
| 31>
| 32>                          ****END OF INPUT****

CARTESIAN COORDINATES (ANGSTROEM)
---------------------------------
  C      0.754641    3.327768    2.001717
  C      1.308969    2.052491    1.958685
  C      0.493701    0.941142    1.764189
  C     -0.882469    1.113850    1.611442
  C     -1.413878    2.392986    1.647185
  C     -0.613456    3.511318    1.843776
  H      1.391909    4.189321    2.154695
  H      2.375869    1.910456    2.073978
  H     -1.534587    0.263539    1.460284
  Cl    -3.143006    2.602947    1.442722
  H     -1.051810    4.499179    1.870881
  C      1.092630   -0.444872    1.766552
  C      0.609703   -1.321426    2.905566
  H      1.103473   -2.291697    2.889645
  H     -0.469895   -1.471013    2.878075
  H      0.864759   -0.821471    3.840769
  N      0.835438   -1.098100    0.417180
  O      1.128494   -0.450612   -0.579005
  O      0.401971   -2.238954    0.376517
  H      2.200412   -0.361056    1.783089
  O      6.488712   -0.850016    2.142982
  H      6.935430   -0.140436    2.616702
  H      5.517798   -0.507089    1.982814
  H      4.063282    0.564673    1.051449
  O      4.093711   -0.060315    1.784400

 Total Charge           Charge          ....   -1
 Multiplicity           Mult            ....    1
 Number of Electrons    NEL             ....  116
 Basis Dimension        Dim             ....  506

ORBITAL ENERGIES
----------------

  NO   OCC          E(Eh)            E(eV)
   0   2.0000    -101.528158     -2762.7216
   1   2.0000     -19.164607      -521.4955
   2   2.0000     -19.160834      -521.3928
   3   2.0000     -19.066696      -518.8312
   4   2.0000     -19.017343      -517.4882
   5   2.0000     -14.545019      -395.7901
   6   2.0000     -10.237873      -278.5867
   7   2.0000     -10.218858      -278.0693
   8   2.0000     -10.195570      -277.4356
   9   2.0000     -10.185951      -277.1738
  10   2.0000     -10.184896      -277.1451
  11   2.0000     -10.182105      -277.0692
  12   2.0000     -10.176605      -276.9195
  13   2.0000     -10.163750      -276.5697
  14   2.0000      -9.460300      -257.4279
  15   2.0000      -7.221605      -196.5098
  16   2.0000      -7.213500      -196.2893
  17   2.0000      -7.213172      -196.2804
  18   2.0000      -1.232673       -33.5427
  19   2.0000      -1.058829       -28.8122
  20   2.0000      -0.946697       -25.7609
  21   2.0000      -0.897179       -24.4135
  22   2.0000      -0.863922       -23.5085
  23   2.0000      -0.853828       -23.2338
  24   2.0000      -0.818638       -22.2763
  25   2.0000      -0.751978       -20.4624
  26   2.0000      -0.735966       -20.0266
  27   2.0000      -0.696019       -18.9396
  28   2.0000      -0.631959       -17.1965
  29   2.0000      -0.608145       -16.5485
  30   2.0000      -0.580613       -15.7993
  31   2.0000      -0.544524       -14.8173
  32   2.0000      -0.539126       -14.6704
  33   2.0000      -0.522138       -14.2081
  34   2.0000      -0.504839       -13.7374
  35   2.0000      -0.478267       -13.0143
  36   2.0000      -0.473461       -12.8835
  37   2.0000      -0.456312       -12.4169
  38   2.0000      -0.437319       -11.9000
  39   2.0000      -0.430045       -11.7021
  40   2.0000      -0.414394       -11.2762
  41   2.0000      -0.401429       -10.9234
  42   2.0000      -0.394675       -10.7397
  43   2.0000      -0.375948       -10.2301
  44   2.0000      -0.369153       -10.0452
  45   2.0000      -0.360344        -9.8054
  46   2.0000      -0.356394        -9.6980
  47   2.0000      -0.338821        -9.2198
  48   2.0000      -0.335083        -9.1181
  49   2.0000      -0.323358        -8.7990
  50   2.0000      -0.317994        -8.6530
  51   2.0000      -0.313286        -8.5249
  52   2.0000      -0.301547        -8.2055
  53   2.0000      -0.270865        -7.3706
  54   2.0000      -0.264913        -7.2087
  55   2.0000      -0.252405        -6.8683
  56   2.0000      -0.223083        -6.0704
  57   2.0000      -0.217439        -5.9168
  58   0.0000      -0.073145        -1.9904
  59   0.0000      -0.028440        -0.7739
  60   0.0000      -0.021543        -0.5862
  61   0.0000       0.023363         0.6357
  62   0.0000       0.048124         1.3095

MULLIKEN ATOMIC CHARGES
-----------------------
   0 C :   -0.118412
   1 C :   -0.186596
   2 C :    0.152919
   3 C :   -0.286858
   4 C :    0.214351
   5 C :   -0.214754
   6 H :    0.149025
   7 H :    0.086005
   8 H :    0.149935
   9 Cl:   -0.140602
  10 H :    0.149703
  11 C :    0.022266
  12 C :   -0.373830
  13 H :    0.133811
  14 H :    0.133677
  15 H :    0.133942
  16 N :    0.415551
  17 O :   -0.363351
  18 O :   -0.349878
  19 H :    0.148086
  20 O :   -0.826651
  21 H :    0.317630
  22 H :    0.357185
  23 H :    0.286187
  24 O :   -0.989341
Sum of atomic charges:   -1.0000000

LOEWDIN ATOMIC CHARGES
----------------------
   0 C :   -0.126706
   1 C :   -0.104684
   2 C :   -0.131757
   3 C :   -0.107194
   4 C :   -0.413645
   5 C :   -0.141389
   6 H :    0.154258
   7 H :    0.146787
   8 H :    0.159406
   9 Cl:    0.356439
  10 H :    0.153814
  11 C :   -0.223191
  12 C :   -0.271469
  13 H :    0.127138
  14 H :    0.127630
  15 H :    0.137156
  16 N :   -0.031487
  17 O :   -0.064447
  18 O :   -0.051808
  19 H :    0.170420
  20 O :   -0.470257
  21 H :    0.135943
  22 H :    0.112927
  23 H :    0.092651
  24 O :   -0.736533

  Mayer bond orders larger than 0.100000
B(  0-C ,  1-C ) :   1.4039 B(  0-C ,  5-C ) :   1.3816 B(  0-C ,  6-H ) :   0.9743
B(  1-C ,  2-C ) :   1.3656 B(  1-C ,  7-H ) :   0.9384 B(  2-C ,  3-C ) :   1.3239
B(  2-C , 11-C ) :   0.8914 B(  3-C ,  4-C ) :   1.3692 B(  3-C ,  8-H ) :   0.9754
B(  4-C ,  5-C ) :   1.3358 B(  4-C ,  9-Cl) :   0.9166 B(  5-C , 10-H ) :   0.9739
B(  7-H , 24-O ) :   0.1716 B( 11-C , 12-C ) :   0.9454 B( 11-C , 16-N ) :   0.8466
B( 11-C , 19-H ) :   0.8823 B( 12-C , 13-H ) :   0.9695 B( 12-C , 14-H ) :   0.9619
B( 12-C , 15-H ) :   0.9680 B( 16-N , 17-O ) :   1.6166 B( 16-N , 18-O ) :   1.6201
B( 17-O , 18-O ) :   0.1943 B( 19-H , 24-O ) :   0.2114 B( 20-O , 21-H ) :   0.9049
B( 20-O , 22-H ) :   0.6852 B( 22-H , 24-O ) :   0.2779 B( 23-H , 24-O ) :   0.9208

Dispersion correction           -0.045954518
FINAL SINGLE POINT ENERGY     -1127.293315044638
Dispersion correction            ... done

DIPOLE MOMENT
-------------
                                X             Y             Z
Electronic contribution:    -25.02409       8.44251      -6.79213
Nuclear contribution   :     19.07247      -4.80861       7.77816
                        -----------------------------------------
Total Dipole Moment    :     -5.95162       3.63390       0.98604
                        -----------------------------------------
Magnitude (a.u.)       :      7.04267
Magnitude (Debye)      :     17.90105

VIBRATIONAL FREQUENCIES
-----------------------

Scaling factor for frequencies =  1.000000000 (already applied!)

   0:         0.00 cm**-1
   1:         0.00 cm**-1
   2:         0.00 cm**-1
   3:         0.00 cm**-1
   4:         0.00 cm**-1
   5:         0.00 cm**-1
   6:       -32.32 cm**-1 ***imaginary mode***
   7:        16.89 cm**-1
   8:        40.39 cm**-1
   9:        45.98 cm**-1
  10:        51.43 cm**-1
  11:        72.69 cm**-1
  12:        84.48 cm**-1
  13:        87.36 cm**-1
  14:       114.49 cm**-1
  15:       149.09 cm**-1
  16:       183.67 cm**-1
  17:       201.33 cm**-1
  18:       243.63 cm**-1
  19:       257.03 cm**-1
  20:       310.37 cm**-1
  21:       315.24 cm**-1
  22:       321.89 cm**-1
  23:       376.13 cm**-1
  24:       410.99 cm**-1
  25:       451.26 cm**-1
  26:       466.16 cm**-1
  27:       509.81 cm**-1
  28:       534.43 cm**-1
  29:       546.56 cm**-1
  30:       603.87 cm**-1
  31:       631.64 cm**-1
  32:       701.19 cm**-1
  33:       719.64 cm**-1
  34:       773.52 cm**-1
  35:       817.04 cm**-1
  36:       854.15 cm**-1
  37:       883.01 cm**-1
  38:       921.46 cm**-1
  39:       954.83 cm**-1
  40:      1020.84 cm**-1
  41:      1029.01 cm**-1
  42:      1041.14 cm**-1
  43:      1081.89 cm**-1
  44:      1101.14 cm**-1
  45:      1107.80 cm**-1
  46:      1138.11 cm**-1
  47:      1146.76 cm**-1
  48:      1188.46 cm**-1
  49:      1241.56 cm**-1
  50:      1295.14 cm**-1
  51:      1345.33 cm**-1
  52:      1374.08 cm**-1
  53:      1400.14 cm**-1
  54:      1412.73 cm**-1
  55:      1419.79 cm**-1
  56:      1471.63 cm**-1
  57:      1477.19 cm**-1
  58:      1483.18 cm**-1
  59:      1513.09 cm**-1
  60:      1545.16 cm**-1
  61:      1611.17 cm**-1
  62:      1622.11 cm**-1
  63:      1636.18 cm**-1
  64:      2292.98 cm**-1
  65:      2763.40 cm**-1
  66:      3048.01 cm**-1
  67:      3113.46 cm**-1
  68:      3124.91 cm**-1
  69:      3176.39 cm**-1
  70:      3187.91 cm**-1
  71:      3189.85 cm**-1
  72:      3205.53 cm**-1
  73:      3792.89 cm**-1
  74:      3817.18 cm**-1

IR SPECTRUM
-----------

 Mode   freq       eps      Int      T**2         TX        TY        TZ
       cm**-1   L/(mol*cm) km/mol    a.u.
----------------------------------------------------------------------------
  7:     16.89   0.001504    7.60  0.027788  (-0.029053  0.061383 -0.152238)
  8:     40.39   0.001956    9.88  0.015113  (-0.089813  0.032654 -0.077334)
  9:     45.98   0.004917   24.85  0.033373  ( 0.010690 -0.156048 -0.094379)
 10:     51.43   0.002607   13.17  0.015819  (-0.080101  0.096921  0.003035)
 11:     72.69   0.006353   32.11  0.027273  (-0.002909 -0.009922  0.164821)
 12:     84.48   0.030558  154.43  0.112878  ( 0.083335  0.074170 -0.316911)
 13:     87.36   0.001261    6.37  0.004505  (-0.010080  0.059395 -0.029598)
 14:    114.49   0.010307   52.09  0.028095  (-0.159549 -0.049798  0.012610)
 15:    149.09   0.000981    4.96  0.002053  ( 0.039471  0.021834 -0.004276)
 16:    183.67   0.015588   78.77  0.026484  (-0.034471 -0.143109 -0.069395)
 17:    201.33   0.009650   48.77  0.014958  (-0.012315 -0.109975 -0.052076)
 18:    243.63   0.000116    0.59  0.000149  (-0.002623  0.007830 -0.008967)
 19:    257.03   0.000894    4.52  0.001085  (-0.021608  0.019786 -0.015064)
 20:    310.37   0.000133    0.67  0.000134  (-0.007611  0.001394  0.008595)
 21:    315.24   0.024835  125.51  0.024585  ( 0.148692 -0.028938  0.040473)
 22:    321.89   0.035885  181.35  0.034790  ( 0.180577 -0.037360  0.028037)
 23:    376.13   0.000629    3.18  0.000522  (-0.017610  0.006063  0.013214)
 24:    410.99   0.005072   25.63  0.003851  ( 0.060687 -0.009067  0.009282)
 25:    451.26   0.001798    9.09  0.001243  (-0.022424  0.008468 -0.025862)
 26:    466.16   0.020082  101.48  0.013443  (-0.111952  0.030166  0.000437)
 27:    509.81   0.003492   17.65  0.002137  (-0.020499  0.001459  0.041412)
 28:    534.43   0.005152   26.04  0.003008  ( 0.050166 -0.013589  0.017528)
 29:    546.56   0.035679  180.31  0.020371  (-0.137376  0.001616 -0.038685)
 30:    603.87   0.001138    5.75  0.000588  (-0.001287  0.022832 -0.008071)
 31:    631.64   0.001630    8.24  0.000805  ( 0.000986 -0.018626 -0.021387)
 32:    701.19   0.007196   36.37  0.003203  ( 0.049731 -0.025909 -0.007633)
 33:    719.64   0.006423   32.46  0.002785  ( 0.008430  0.011182 -0.050882)
 34:    773.52   0.008525   43.08  0.003439  (-0.017883  0.005409 -0.055591)
 35:    817.04   0.006600   33.35  0.002521  (-0.018983 -0.002572  0.046409)
 36:    854.15   0.006408   32.38  0.002341  ( 0.043998  0.000010  0.020135)
 37:    883.01   0.007724   39.03  0.002730  ( 0.000039 -0.031779 -0.041469)
 38:    921.46   0.004218   21.31  0.001428  (-0.007800  0.001494  0.036950)
 39:    954.83   0.000039    0.20  0.000013  (-0.003004  0.001664 -0.001038)
 40:   1020.84   0.001208    6.10  0.000369  ( 0.019112 -0.000548  0.001905)
 41:   1029.01   0.000916    4.63  0.000278  ( 0.011528  0.007582 -0.009352)
 42:   1041.14   0.000169    0.85  0.000051  ( 0.002364  0.006683 -0.000564)
 43:   1081.89   0.007680   38.81  0.002215  (-0.019779 -0.042009 -0.007697)
 44:   1101.14   0.004241   21.43  0.001202  ( 0.033935  0.006776  0.002085)
 45:   1107.80   0.002922   14.77  0.000823  ( 0.025729 -0.009522  0.008391)
 46:   1138.11   0.009021   45.59  0.002474  (-0.045610 -0.000942  0.019808)
 47:   1146.76   0.026762  135.25  0.007283  ( 0.029006  0.031095 -0.073990)
 48:   1188.46   0.000071    0.36  0.000019  (-0.003674  0.002262 -0.000191)
 49:   1241.56   0.011567   58.45  0.002907  ( 0.039244 -0.032433  0.017756)
 50:   1295.14   0.000674    3.41  0.000162  ( 0.010329 -0.007353  0.001283)
 51:   1345.33   0.000031    0.16  0.000007  ( 0.002005  0.000515  0.001738)
 52:   1374.08   0.036141  182.64  0.008208  (-0.051504 -0.043796 -0.060308)
 53:   1400.14   0.008373   42.32  0.001866  (-0.007681  0.033037  0.026756)
 54:   1412.73   0.003631   18.35  0.000802  ( 0.001336  0.017140  0.022504)
 55:   1419.79   0.020951  105.88  0.004605  ( 0.005992  0.002919 -0.067531)
 56:   1471.63   0.001265    6.39  0.000268  ( 0.011268  0.006340  0.010051)
 57:   1477.19   0.001838    9.29  0.000388  (-0.017861 -0.001833 -0.008114)
 58:   1483.18   0.001537    7.77  0.000323  ( 0.014722  0.001191  0.010258)
 59:   1513.09   0.010973   55.45  0.002263  (-0.043098  0.018899 -0.006955)
 60:   1545.16   0.134823  681.34  0.027229  (-0.058002 -0.141746  0.061425)
 61:   1611.17   0.009828   49.67  0.001904  ( 0.042613 -0.002862  0.008921)
 62:   1622.11   0.018626   94.13  0.003583  ( 0.020950 -0.053879 -0.015537)
 63:   1636.18   0.005626   28.43  0.001073  (-0.021192  0.024979  0.000216)
 64:   2292.98   0.819510  4141.47  0.111532  ( 0.319024 -0.074545  0.064793)
 65:   2763.40   0.136691  690.78  0.015436  ( 0.118389  0.031031  0.021387)
 66:   3048.01   0.002580   13.04  0.000264  ( 0.002606  0.007267 -0.014301)
 67:   3113.46   0.002747   13.88  0.000275  ( 0.011019  0.008979  0.008560)
 68:   3124.91   0.004957   25.05  0.000495  ( 0.012945 -0.017947 -0.002311)
 69:   3176.39   0.000997    5.04  0.000098  ( 0.009887  0.000107  0.000384)
 70:   3187.91   0.001419    7.17  0.000139  (-0.002424 -0.011400 -0.001738)
 71:   3189.85   0.000032    0.16  0.000003  ( 0.000935  0.001358  0.000675)
 72:   3205.53   0.000562    2.84  0.000055  ( 0.000161  0.007374  0.000531)
 73:   3792.89   0.000183    0.93  0.000015  ( 0.002950 -0.001738  0.001834)
 74:   3817.18   0.005602   28.31  0.000458  (-0.015935 -0.010185 -0.010017)

--------------------------
THERMOCHEMISTRY AT 298.15K
--------------------------

Temperature         ... 298.15 K
Pressure            ... 1.00 atm
Total Mass          ... 220.63 AMU

Throughout the following assumptions are being made:
  (1) The electronic state is orbitally nondegenerate
  (2) There are no thermally accessible electronically excited states
  (3) Hindered rotations indicated by low frequency modes are not
      treated as such but are treated as vibrations and this may
      cause some error
  (4) All equations used are the standard statistical mechanics
      equations for an ideal gas
  (5) All vibrations are strictly harmonic

freq.      16.89  E(vib)   ...       0.57
freq.      40.39  E(vib)   ...       0.54
freq.      45.98  E(vib)   ...       0.53
freq.      51.43  E(vib)   ...       0.52
freq.      72.69  E(vib)   ...       0.49
freq.      84.48  E(vib)   ...       0.48
freq.      87.36  E(vib)   ...       0.48
freq.     114.49  E(vib)   ...       0.44
freq.     149.09  E(vib)   ...       0.40
freq.     183.67  E(vib)   ...       0.37
freq.     201.33  E(vib)   ...       0.35
freq.     243.63  E(vib)   ...       0.31
freq.     257.03  E(vib)   ...       0.30
freq.     310.37  E(vib)   ...       0.26
freq.     315.24  E(vib)   ...       0.25
freq.     321.89  E(vib)   ...       0.25
freq.     376.13  E(vib)   ...       0.21
freq.     410.99  E(vib)   ...       0.19
freq.     451.26  E(vib)   ...       0.16
freq.     466.16  E(vib)   ...       0.16
freq.     509.81  E(vib)   ...       0.14
freq.     534.43  E(vib)   ...       0.13
freq.     546.56  E(vib)   ...       0.12
freq.     603.87  E(vib)   ...       0.10
freq.     631.64  E(vib)   ...       0.09
freq.     701.19  E(vib)   ...       0.07
freq.     719.64  E(vib)   ...       0.07
freq.     773.52  E(vib)   ...       0.05
freq.     817.04  E(vib)   ...       0.05
freq.     854.15  E(vib)   ...       0.04
freq.     883.01  E(vib)   ...       0.04
freq.     921.46  E(vib)   ...       0.03
freq.     954.83  E(vib)   ...       0.03
freq.    1020.84  E(vib)   ...       0.02
freq.    1029.01  E(vib)   ...       0.02
freq.    1041.14  E(vib)   ...       0.02
freq.    1081.89  E(vib)   ...       0.02
freq.    1101.14  E(vib)   ...       0.02
freq.    1107.80  E(vib)   ...       0.02
freq.    1138.11  E(vib)   ...       0.01
freq.    1146.76  E(vib)   ...       0.01
freq.    1188.46  E(vib)   ...       0.01
freq.    1241.56  E(vib)   ...       0.01
freq.    1295.14  E(vib)   ...       0.01
freq.    1345.33  E(vib)   ...       0.01
freq.    1374.08  E(vib)   ...       0.01
freq.    1400.14  E(vib)   ...       0.00
freq.    1412.73  E(vib)   ...       0.00
freq.    1419.79  E(vib)   ...       0.00
freq.    1471.63  E(vib)   ...       0.00
freq.    1477.19  E(vib)   ...       0.00
freq.    1483.18  E(vib)   ...       0.00
freq.    1513.09  E(vib)   ...       0.00
freq.    1545.16  E(vib)   ...       0.00
freq.    1611.17  E(vib)   ...       0.00
freq.    1622.11  E(vib)   ...       0.00
freq.    1636.18  E(vib)   ...       0.00
freq.    2292.98  E(vib)   ...       0.00
freq.    2763.40  E(vib)   ...       0.00
freq.    3048.01  E(vib)   ...       0.00
freq.    3113.46  E(vib)   ...       0.00
freq.    3124.91  E(vib)   ...       0.00
freq.    3176.39  E(vib)   ...       0.00
freq.    3187.91  E(vib)   ...       0.00
freq.    3189.85  E(vib)   ...       0.00
freq.    3205.53  E(vib)   ...       0.00
freq.    3792.89  E(vib)   ...       0.00
freq.    3817.18  E(vib)   ...       0.00

------------
INNER ENERGY
------------

The inner energy is: U= E(el) + E(ZPE) + E(vib) + E(rot) + E(trans)
    E(el)   - is the total energy from the electronic structure calculation
              = E(kin-el) + E(nuc-el) + E(el-el) + E(nuc-nuc)
    E(ZPE)  - the the zero temperature vibrational energy from the frequency calculation
    E(vib)  - the the finite temperature correction to E(ZPE) due to population
              of excited vibrational states
    E(rot)  - is the rotational thermal energy
    E(trans)- is the translational thermal energy

Summary of contributions to the inner energy U:
Electronic energy                ...  -1127.29331504 Eh
Zero point energy                ...      0.18240781 Eh     114.46 kcal/mol
Thermal vibrational correction   ...      0.01340124 Eh       8.41 kcal/mol
Thermal rotational correction    ...      0.00141627 Eh       0.89 kcal/mol
Thermal translational correction ...      0.00141627 Eh       0.89 kcal/mol
-----------------------------------------------------------------------
Total thermal energy                  -1127.09467345 Eh

Summary of corrections to the electronic energy:
(perhaps to be used in another calculation)
Total thermal correction                  0.01623378 Eh      10.19 kcal/mol
Non-thermal (ZPE) correction              0.18240781 Eh     114.46 kcal/mol
-----------------------------------------------------------------------
Total correction                          0.19864159 Eh     124.65 kcal/mol

--------
ENTHALPY
--------

The enthalpy is H = U + kB*T
                kB is Boltzmann's constant
Total free energy                 ...  -1127.09467345 Eh
Thermal Enthalpy correction       ...      0.00094421 Eh       0.59 kcal/mol
-----------------------------------------------------------------------
Total Enthalpy                    ...  -1127.09372924 Eh

Note: Only C1 symmetry has been detected, increase convergence thresholds
      if your molecule has a higher symmetry. Symmetry factor of 1.0 is
      used for the rotational entropy correction.

Note: Rotational entropy computed according to Herzberg
Infrared and Raman Spectra, Chapter V,1, Van Nostrand Reinhold, 1945
Point Group:  C1, Symmetry Number:   1
Rotational constants in cm-1:     0.028202     0.009077     0.007606

Vibrational entropy computed according to the QRRHO of S. Grimme
Chem.Eur.J. 2012 18 9955

-------
ENTROPY
-------

The entropy contributions are T*S = T*(S(el)+S(vib)+S(rot)+S(trans))
     S(el)   - electronic entropy
     S(vib)  - vibrational entropy
     S(rot)  - rotational entropy
     S(trans)- translational entropy
The entropies will be listed as multiplied by the temperature to get
units of energy

Electronic entropy                ...      0.00000000 Eh      0.00 kcal/mol
Vibrational entropy               ...      0.02455815 Eh     15.41 kcal/mol
Rotational entropy                ...      0.01571842 Eh      9.86 kcal/mol
Translational entropy             ...      0.01999197 Eh     12.55 kcal/mol
-----------------------------------------------------------------------
Final entropy term                ...      0.06026854 Eh     37.82 kcal/mol

                             ****ORCA TERMINATED NORMALLY****
TOTAL RUN TIME: 0 days 0 hours 24 minutes 28 seconds 465 msec
