                         Program Version 5.0.4 -  RELEASE  -
|  1> !  NUMFREQ B3LYP def2-TZVP CPCM D3
|  2> %pal nprocs 102 end
|  3> %cpcm epsilon 78.4 end
|  4> *xyz 0 1
|  5> C   1.97278847132873 3.14175462655493 1.96080427182245
|  6> C   2.21995752294298 1.84585538849494 1.52431474706321
|  7> C   1.53364154510296 0.76619619947279 2.08183417265771
|  8> C   0.59152174817605 1.00144271553625 3.08269943581718
|  9> C   0.3437075415987 2.2979341594359 3.51945019252842
| 10> C   1.03148384794749 3.37063667923028 2.95941429707152
| 11> H   2.52033159284424 3.9688459607183 1.52780047515187
| 12> H   2.95701288450119 1.66643774426048 0.75119154818221
| 13> H   0.05280706166881 0.17774940761637 3.52968026667994
| 14> H   0.84179817988249 4.37842445296515 3.30645052815572
| 15> C   1.83163244431157 -0.62583120836447 1.57033237967275
| 16> C   1.58949684062273 -1.7728527140015 2.53348853088561
| 17> H   1.85990645019438 -2.71814573760412 2.06242867823386
| 18> H   0.551454217962 -1.82345174289278 2.85404054170386
| 19> H   2.22211759295257 -1.63029112441361 3.40854012226734
| 20> N   0.96596490697778 -0.84513295743685 0.3170279757607
| 21> O   1.51888552816682 -0.78420640040723 -0.76932304021566
| 22> O   -0.22610690247135 -1.04918839073036 0.46882049112215
| 23> N   3.7831801342307 1.95511810485874 4.87384284124396
| 24> C   3.98456555465267 0.50804911298395 4.77694180087353
| 25> C   5.29912553833234 0.11644468410638 5.4442659393656
| 26> C   6.46823036335582 0.88496055386296 4.82255162086109
| 27> C   6.19209469179225 2.39059658939608 4.82270261128118
| 28> C   4.84019974515922 2.69430453693285 4.18340977291371
| 29> H   4.61753013165332 3.76157032511883 4.24382783759933
| 30> H   4.88187819675298 2.43227518422387 3.11227697619358
| 31> H   6.97965804426835 2.92470335176229 4.28476855532637
| 32> H   6.18860252550386 2.76301726290635 5.85216194025457
| 33> H   5.45318698379508 -0.96140805189043 5.34890860788359
| 34> H   5.23774810004979 0.34555991775822 6.51317989072351
| 35> H   4.01339734926404 0.17919348426777 3.72619416282635
| 36> H   2.84614974297623 -0.66087570731623 1.18174283694532
| 37> H   2.8829246897749 2.19733902541888 4.47784044266294
| 38> H   3.14165225267681 0.00525194068173 5.25377990297623
| 39> H   7.39701785463324 0.66612865136767 5.35532457577052
| 40> H   6.60944459324662 0.54880054302496 3.78951520298085
| 41> H   -0.38372170683162 2.46949522906763 4.30260836994686
| 42> H   5.17522905069714 0.55997286915537 1.54915569577409
| 43> H   5.62868498884502 -0.85733572327867 1.87512129194391
| 44> O   5.28664948046037 -0.31455919284387 1.15349264909138
| 45> *
| 46>
| 47>                          ****END OF INPUT****

CARTESIAN COORDINATES (ANGSTROEM)
---------------------------------
  C      1.972788    3.141755    1.960804
  C      2.219958    1.845855    1.524315
  C      1.533642    0.766196    2.081834
  C      0.591522    1.001443    3.082699
  C      0.343708    2.297934    3.519450
  C      1.031484    3.370637    2.959414
  H      2.520332    3.968846    1.527800
  H      2.957013    1.666438    0.751192
  H      0.052807    0.177749    3.529680
  H      0.841798    4.378424    3.306451
  C      1.831632   -0.625831    1.570332
  C      1.589497   -1.772853    2.533489
  H      1.859906   -2.718146    2.062429
  H      0.551454   -1.823452    2.854041
  H      2.222118   -1.630291    3.408540
  N      0.965965   -0.845133    0.317028
  O      1.518886   -0.784206   -0.769323
  O     -0.226107   -1.049188    0.468820
  N      3.783180    1.955118    4.873843
  C      3.984566    0.508049    4.776942
  C      5.299126    0.116445    5.444266
  C      6.468230    0.884961    4.822552
  C      6.192095    2.390597    4.822703
  C      4.840200    2.694305    4.183410
  H      4.617530    3.761570    4.243828
  H      4.881878    2.432275    3.112277
  H      6.979658    2.924703    4.284769
  H      6.188603    2.763017    5.852162
  H      5.453187   -0.961408    5.348909
  H      5.237748    0.345560    6.513180
  H      4.013397    0.179193    3.726194
  H      2.846150   -0.660876    1.181743
  H      2.882925    2.197339    4.477840
  H      3.141652    0.005252    5.253780
  H      7.397018    0.666129    5.355325
  H      6.609445    0.548801    3.789515
  H     -0.383722    2.469495    4.302608
  H      5.175229    0.559973    1.549156
  H      5.628685   -0.857336    1.875121
  O      5.286649   -0.314559    1.153493

 Total Charge           Charge          ....    0
 Multiplicity           Mult            ....    1
 Number of Electrons    NEL             ....  138
 Basis Dimension        Dim             ....  690

ORBITAL ENERGIES
----------------

  NO   OCC          E(Eh)            E(eV)
   0   2.0000     -19.171343      -521.6788
   1   2.0000     -19.170923      -521.6673
   2   2.0000     -19.125845      -520.4407
   3   2.0000     -14.551821      -395.9752
   4   2.0000     -14.289096      -388.8261
   5   2.0000     -10.234925      -278.5065
   6   2.0000     -10.194441      -277.4048
   7   2.0000     -10.180500      -277.0255
   8   2.0000     -10.180385      -277.0224
   9   2.0000     -10.179214      -276.9905
  10   2.0000     -10.178582      -276.9733
  11   2.0000     -10.178514      -276.9715
  12   2.0000     -10.178163      -276.9619
  13   2.0000     -10.177657      -276.9481
  14   2.0000     -10.170302      -276.7480
  15   2.0000     -10.154014      -276.3048
  16   2.0000     -10.153170      -276.2818
  17   2.0000     -10.152944      -276.2757
  18   2.0000      -1.240997       -33.7692
  19   2.0000      -1.068266       -29.0690
  20   2.0000      -1.008753       -27.4496
  21   2.0000      -0.901232       -24.5238
  22   2.0000      -0.876609       -23.8538
  23   2.0000      -0.830996       -22.6126
  24   2.0000      -0.776569       -21.1315
  25   2.0000      -0.755020       -20.5451
  26   2.0000      -0.745852       -20.2957
  27   2.0000      -0.741877       -20.1875
  28   2.0000      -0.700670       -19.0662
  29   2.0000      -0.629039       -17.1170
  30   2.0000      -0.626703       -17.0535
  31   2.0000      -0.613056       -16.6821
  32   2.0000      -0.610194       -16.6042
  33   2.0000      -0.585300       -15.9268
  34   2.0000      -0.550381       -14.9766
  35   2.0000      -0.544137       -14.8067
  36   2.0000      -0.541215       -14.7272
  37   2.0000      -0.530349       -14.4315
  38   2.0000      -0.525313       -14.2945
  39   2.0000      -0.510548       -13.8927
  40   2.0000      -0.503494       -13.7008
  41   2.0000      -0.474771       -12.9192
  42   2.0000      -0.456044       -12.4096
  43   2.0000      -0.445854       -12.1323
  44   2.0000      -0.443054       -12.0561
  45   2.0000      -0.440460       -11.9855
  46   2.0000      -0.425165       -11.5693
  47   2.0000      -0.418665       -11.3924
  48   2.0000      -0.410585       -11.1726
  49   2.0000      -0.402029       -10.9398
  50   2.0000      -0.398135       -10.8338
  51   2.0000      -0.394464       -10.7339
  52   2.0000      -0.391585       -10.6556
  53   2.0000      -0.380771       -10.3613
  54   2.0000      -0.375100       -10.2070
  55   2.0000      -0.373001       -10.1499
  56   2.0000      -0.352990        -9.6053
  57   2.0000      -0.346750        -9.4355
  58   2.0000      -0.339282        -9.2323
  59   2.0000      -0.331749        -9.0273
  60   2.0000      -0.320649        -8.7253
  61   2.0000      -0.320469        -8.7204
  62   2.0000      -0.315848        -8.5947
  63   2.0000      -0.307515        -8.3679
  64   2.0000      -0.305511        -8.3134
  65   2.0000      -0.304068        -8.2741
  66   2.0000      -0.264542        -7.1986
  67   2.0000      -0.262879        -7.1533
  68   2.0000      -0.224488        -6.1086
  69   0.0000      -0.080769        -2.1978
  70   0.0000      -0.025158        -0.6846
  71   0.0000      -0.020211        -0.5500
  72   0.0000       0.020118         0.5474
  73   0.0000       0.049160         1.3377

MULLIKEN ATOMIC CHARGES
-----------------------
   0 C :   -0.135532
   1 C :   -0.189879
   2 C :    0.076406
   3 C :   -0.194505
   4 C :   -0.144060
   5 C :   -0.149054
   6 H :    0.142183
   7 H :    0.146845
   8 H :    0.147131
   9 H :    0.143927
  10 C :    0.044377
  11 C :   -0.377550
  12 H :    0.145910
  13 H :    0.140050
  14 H :    0.151526
  15 N :    0.438352
  16 O :   -0.346595
  17 O :   -0.348984
  18 N :   -0.367038
  19 C :   -0.131003
  20 C :   -0.145126
  21 C :   -0.162196
  22 C :   -0.143737
  23 C :   -0.122494
  24 H :    0.104709
  25 H :    0.075832
  26 H :    0.095542
  27 H :    0.073018
  28 H :    0.095999
  29 H :    0.073625
  30 H :    0.055221
  31 H :    0.142876
  32 H :    0.203387
  33 H :    0.109904
  34 H :    0.097922
  35 H :    0.072161
  36 H :    0.143529
  37 H :    0.355162
  38 H :    0.358331
  39 O :   -0.676171
Sum of atomic charges:    0.0000000

LOEWDIN ATOMIC CHARGES
----------------------
   0 C :   -0.135620
   1 C :   -0.103124
   2 C :   -0.140739
   3 C :   -0.102832
   4 C :   -0.140634
   5 C :   -0.140206
   6 H :    0.151824
   7 H :    0.155942
   8 H :    0.156436
   9 H :    0.151157
  10 C :   -0.206949
  11 C :   -0.262326
  12 H :    0.133115
  13 H :    0.128772
  14 H :    0.138012
  15 N :   -0.029551
  16 O :   -0.052775
  17 O :   -0.044342
  18 N :   -0.025483
  19 C :   -0.311387
  20 C :   -0.262139
  21 C :   -0.263225
  22 C :   -0.262413
  23 C :   -0.308036
  24 H :    0.127022
  25 H :    0.116012
  26 H :    0.133875
  27 H :    0.131963
  28 H :    0.134022
  29 H :    0.131927
  30 H :    0.118047
  31 H :    0.161134
  32 H :    0.164413
  33 H :    0.127231
  34 H :    0.131515
  35 H :    0.131456
  36 H :    0.151667
  37 H :    0.158771
  38 H :    0.168617
  39 O :   -0.311146

  Mayer bond orders larger than 0.100000
B(  0-C ,  1-C ) :   1.4038 B(  0-C ,  5-C ) :   1.3685 B(  0-C ,  6-H ) :   0.9817
B(  1-C ,  2-C ) :   1.3250 B(  1-C ,  7-H ) :   0.9780 B(  2-C ,  3-C ) :   1.3132
B(  2-C , 10-C ) :   0.9316 B(  3-C ,  4-C ) :   1.4083 B(  3-C ,  8-H ) :   0.9755
B(  4-C ,  5-C ) :   1.3675 B(  4-C , 36-H ) :   0.9818 B(  5-C ,  9-H ) :   0.9776
B( 10-C , 11-C ) :   0.9566 B( 10-C , 15-N ) :   0.7934 B( 10-C , 31-H ) :   0.9522
B( 11-C , 12-H ) :   0.9704 B( 11-C , 13-H ) :   0.9502 B( 11-C , 14-H ) :   0.9669
B( 15-N , 16-O ) :   1.6270 B( 15-N , 17-O ) :   1.6223 B( 16-O , 17-O ) :   0.2051
B( 18-N , 19-C ) :   1.0029 B( 18-N , 23-C ) :   0.9717 B( 18-N , 32-H ) :   0.9509
B( 19-C , 20-C ) :   0.9849 B( 19-C , 30-H ) :   0.9723 B( 19-C , 33-H ) :   0.9626
B( 20-C , 21-C ) :   0.9829 B( 20-C , 28-H ) :   0.9675 B( 20-C , 29-H ) :   0.9598
B( 21-C , 22-C ) :   0.9805 B( 21-C , 34-H ) :   0.9677 B( 21-C , 35-H ) :   0.9647
B( 22-C , 23-C ) :   0.9923 B( 22-C , 26-H ) :   0.9679 B( 22-C , 27-H ) :   0.9582
B( 23-C , 24-H ) :   0.9656 B( 23-C , 25-H ) :   0.9623 B( 37-H , 39-O ) :   0.8809
B( 38-H , 39-O ) :   0.8794

Dispersion correction           -0.076991314
FINAL SINGLE POINT ENERGY      -843.643770714623
Dispersion correction            ... done

DIPOLE MOMENT
-------------
                                X             Y             Z
Electronic contribution:    -17.90314      -2.20405     -15.81551
Nuclear contribution   :     19.03092       2.72218      17.75464
                        -----------------------------------------
Total Dipole Moment    :      1.12778       0.51812       1.93913
                        -----------------------------------------
Magnitude (a.u.)       :      2.30230
Magnitude (Debye)      :      5.85198

VIBRATIONAL FREQUENCIES
-----------------------

Scaling factor for frequencies =  1.000000000 (already applied!)

   0:         0.00 cm**-1
   1:         0.00 cm**-1
   2:         0.00 cm**-1
   3:         0.00 cm**-1
   4:         0.00 cm**-1
   5:         0.00 cm**-1
   6:        16.39 cm**-1
   7:        26.47 cm**-1
   8:        31.43 cm**-1
   9:        32.92 cm**-1
  10:        45.83 cm**-1
  11:        49.54 cm**-1
  12:        55.32 cm**-1
  13:        60.63 cm**-1
  14:        64.47 cm**-1
  15:        75.98 cm**-1
  16:        87.65 cm**-1
  17:       100.89 cm**-1
  18:       105.76 cm**-1
  19:       179.11 cm**-1
  20:       221.12 cm**-1
  21:       233.15 cm**-1
  22:       252.01 cm**-1
  23:       261.12 cm**-1
  24:       263.88 cm**-1
  25:       275.06 cm**-1
  26:       294.10 cm**-1
  27:       373.68 cm**-1
  28:       412.96 cm**-1
  29:       417.22 cm**-1
  30:       442.50 cm**-1
  31:       444.99 cm**-1
  32:       456.50 cm**-1
  33:       498.56 cm**-1
  34:       558.66 cm**-1
  35:       601.88 cm**-1
  36:       633.79 cm**-1
  37:       663.22 cm**-1
  38:       713.60 cm**-1
  39:       734.86 cm**-1
  40:       784.66 cm**-1
  41:       787.70 cm**-1
  42:       821.83 cm**-1
  43:       822.07 cm**-1
  44:       832.31 cm**-1
  45:       862.36 cm**-1
  46:       871.24 cm**-1
  47:       871.92 cm**-1
  48:       880.05 cm**-1
  49:       913.99 cm**-1
  50:       943.95 cm**-1
  51:       979.00 cm**-1
  52:       994.16 cm**-1
  53:      1011.03 cm**-1
  54:      1015.19 cm**-1
  55:      1026.83 cm**-1
  56:      1048.36 cm**-1
  57:      1051.78 cm**-1
  58:      1059.72 cm**-1
  59:      1064.44 cm**-1
  60:      1073.13 cm**-1
  61:      1099.54 cm**-1
  62:      1125.83 cm**-1
  63:      1139.08 cm**-1
  64:      1166.51 cm**-1
  65:      1168.49 cm**-1
  66:      1177.47 cm**-1
  67:      1177.64 cm**-1
  68:      1203.49 cm**-1
  69:      1223.10 cm**-1
  70:      1280.94 cm**-1
  71:      1289.17 cm**-1
  72:      1304.96 cm**-1
  73:      1307.67 cm**-1
  74:      1331.56 cm**-1
  75:      1342.85 cm**-1
  76:      1356.02 cm**-1
  77:      1361.86 cm**-1
  78:      1373.01 cm**-1
  79:      1376.60 cm**-1
  80:      1388.69 cm**-1
  81:      1400.57 cm**-1
  82:      1416.13 cm**-1
  83:      1422.27 cm**-1
  84:      1467.08 cm**-1
  85:      1474.58 cm**-1
  86:      1477.41 cm**-1
  87:      1485.77 cm**-1
  88:      1488.20 cm**-1
  89:      1489.60 cm**-1
  90:      1492.52 cm**-1
  91:      1498.04 cm**-1
  92:      1506.96 cm**-1
  93:      1531.94 cm**-1
  94:      1568.52 cm**-1
  95:      1609.35 cm**-1
  96:      1623.68 cm**-1
  97:      1640.60 cm**-1
  98:      2910.36 cm**-1
  99:      2941.12 cm**-1
 100:      3015.29 cm**-1
 101:      3016.49 cm**-1
 102:      3017.24 cm**-1
 103:      3055.39 cm**-1
 104:      3058.73 cm**-1
 105:      3058.81 cm**-1
 106:      3063.18 cm**-1
 107:      3064.40 cm**-1
 108:      3072.69 cm**-1
 109:      3120.58 cm**-1
 110:      3129.67 cm**-1
 111:      3147.71 cm**-1
 112:      3172.06 cm**-1
 113:      3177.87 cm**-1
 114:      3185.50 cm**-1
 115:      3194.72 cm**-1
 116:      3203.47 cm**-1
 117:      3519.66 cm**-1
 118:      3759.21 cm**-1
 119:      3839.06 cm**-1

IR SPECTRUM
-----------

 Mode   freq       eps      Int      T**2         TX        TY        TZ
       cm**-1   L/(mol*cm) km/mol    a.u.
----------------------------------------------------------------------------
  6:     16.39   0.000938    4.74  0.017857  (-0.121291  0.015429  0.053918)
  7:     26.47   0.000332    1.68  0.003909  (-0.061884 -0.001082 -0.008857)
  8:     31.43   0.000135    0.68  0.001341  (-0.032288  0.016320 -0.005678)
  9:     32.92   0.000074    0.38  0.000704  ( 0.013145  0.016968 -0.015585)
 10:     45.83   0.001914    9.67  0.013029  (-0.111435  0.020590  0.013672)
 11:     49.54   0.000440    2.22  0.002769  ( 0.051672 -0.009760  0.001877)
 12:     55.32   0.001081    5.46  0.006095  ( 0.059405  0.038328 -0.033128)
 13:     60.63   0.007256   36.67  0.037347  (-0.178239 -0.058038  0.047007)
 14:     64.47   0.003320   16.78  0.016071  ( 0.124505 -0.017836 -0.015861)
 15:     75.98   0.010040   50.74  0.041237  ( 0.195420 -0.029395 -0.046728)
 16:     87.65   0.002349   11.87  0.008362  ( 0.086218 -0.029029 -0.009256)
 17:    100.89   0.003553   17.96  0.010991  ( 0.075007 -0.071935 -0.013784)
 18:    105.76   0.001816    9.18  0.005360  ( 0.072169  0.009295  0.008082)
 19:    179.11   0.025498  128.86  0.044425  (-0.022607 -0.196128  0.073809)
 20:    221.12   0.000370    1.87  0.000522  (-0.015095 -0.016136  0.005835)
 21:    233.15   0.001999   10.10  0.002676  (-0.021854 -0.039529  0.025220)
 22:    252.01   0.013493   68.19  0.016708  ( 0.121688  0.018952 -0.039249)
 23:    261.12   0.001074    5.43  0.001283  ( 0.030599  0.016199 -0.009206)
 24:    263.88   0.000105    0.53  0.000124  (-0.006124  0.009273  0.000726)
 25:    275.06   0.036050  182.18  0.040900  (-0.194309 -0.018264  0.053015)
 26:    294.10   0.000869    4.39  0.000922  (-0.013979  0.004130  0.026630)
 27:    373.68   0.000195    0.99  0.000163  ( 0.005438 -0.009910 -0.005931)
 28:    412.96   0.000674    3.40  0.000509  (-0.016597 -0.002742 -0.015039)
 29:    417.22   0.000483    2.44  0.000361  (-0.018553  0.004070 -0.000579)
 30:    442.50   0.001680    8.49  0.001185  ( 0.015494 -0.025741  0.016806)
 31:    444.99   0.001354    6.84  0.000950  ( 0.022997 -0.015200 -0.013781)
 32:    456.50   0.000310    1.56  0.000212  ( 0.009126  0.011013 -0.002663)
 33:    498.56   0.002079   10.50  0.001301  (-0.020181  0.025274 -0.015968)
 34:    558.66   0.006821   34.47  0.003810  ( 0.032978 -0.028844 -0.043482)
 35:    601.88   0.004268   21.57  0.002213  ( 0.015449  0.013943  0.042190)
 36:    633.79   0.000458    2.32  0.000226  ( 0.010031  0.000865  0.011150)
 37:    663.22   0.007747   39.15  0.003645  (-0.044127 -0.005370 -0.040857)
 38:    713.60   0.011906   60.17  0.005207  (-0.050723  0.013348 -0.049554)
 39:    734.86   0.008234   41.61  0.003497  ( 0.041282 -0.001996  0.042289)
 40:    784.66   0.023269  117.59  0.009254  (-0.057911  0.043271  0.063469)
 41:    787.70   0.005690   28.76  0.002254  ( 0.001801 -0.013298 -0.045545)
 42:    821.83   0.000302    1.53  0.000115  ( 0.005602 -0.009126  0.000329)
 43:    822.07   0.000210    1.06  0.000080  ( 0.008508  0.002663 -0.000561)
 44:    832.31   0.000415    2.10  0.000155  (-0.007060  0.003099 -0.009799)
 45:    862.36   0.000088    0.44  0.000032  (-0.003628 -0.000127  0.004320)
 46:    871.24   0.009990   50.49  0.003578  (-0.008433 -0.018867 -0.056135)
 47:    871.92   0.003726   18.83  0.001334  (-0.035280  0.001236 -0.009346)
 48:    880.05   0.000134    0.68  0.000048  ( 0.002248  0.006523 -0.000247)
 49:    913.99   0.002524   12.76  0.000862  (-0.010666 -0.004829 -0.026923)
 50:    943.95   0.000854    4.32  0.000282  (-0.010539 -0.000214 -0.013088)
 51:    979.00   0.000363    1.83  0.000116  ( 0.005665  0.007692 -0.004942)
 52:    994.16   0.000044    0.22  0.000014  ( 0.001194  0.003192  0.001467)
 53:   1011.03   0.000845    4.27  0.000261  (-0.014182  0.007666  0.000981)
 54:   1015.19   0.001320    6.67  0.000406  (-0.017502  0.009849  0.001609)
 55:   1026.83   0.000861    4.35  0.000262  ( 0.012049 -0.010349 -0.003053)
 56:   1048.36   0.001113    5.63  0.000331  ( 0.011513 -0.004484 -0.013371)
 57:   1051.78   0.002534   12.80  0.000752  ( 0.006808  0.023462  0.012447)
 58:   1059.72   0.001061    5.36  0.000312  ( 0.006369  0.015610 -0.005315)
 59:   1064.44   0.004592   23.21  0.001346  ( 0.000323 -0.010836 -0.035054)
 60:   1073.13   0.001812    9.16  0.000527  ( 0.002260 -0.008409 -0.021241)
 61:   1099.54   0.004513   22.81  0.001281  ( 0.032248  0.014783 -0.004731)
 62:   1125.83   0.007219   36.48  0.002001  (-0.015798 -0.040133  0.011862)
 63:   1139.08   0.000371    1.87  0.000102  (-0.008031  0.000388 -0.006076)
 64:   1166.51   0.000579    2.93  0.000155  (-0.001208  0.008517  0.009000)
 65:   1168.49   0.001283    6.49  0.000343  (-0.005949  0.005780  0.016550)
 66:   1177.47   0.000227    1.15  0.000060  (-0.003243 -0.006937  0.001230)
 67:   1177.64   0.002836   14.33  0.000751  ( 0.009834  0.024432 -0.007601)
 68:   1203.49   0.000129    0.65  0.000033  (-0.000165  0.005780  0.000204)
 69:   1223.10   0.002435   12.30  0.000621  (-0.002574  0.023796 -0.006952)
 70:   1280.94   0.001051    5.31  0.000256  ( 0.009847  0.002465  0.012373)
 71:   1289.17   0.000276    1.39  0.000067  (-0.001995 -0.007539  0.002436)
 72:   1304.96   0.009317   47.08  0.002228  (-0.041769  0.011381  0.018809)
 73:   1307.67   0.001050    5.30  0.000250  ( 0.007272 -0.008230 -0.011396)
 74:   1331.56   0.008447   42.69  0.001980  (-0.038198 -0.011038  0.019970)
 75:   1342.85   0.005922   29.93  0.001376  ( 0.013754  0.033071 -0.009658)
 76:   1356.02   0.000305    1.54  0.000070  ( 0.002412  0.007601 -0.002566)
 77:   1361.86   0.000474    2.40  0.000109  ( 0.004153  0.009215 -0.002558)
 78:   1373.01   0.000197    1.00  0.000045  (-0.001931 -0.005838  0.002650)
 79:   1376.60   0.000115    0.58  0.000026  (-0.002388  0.001084 -0.004385)
 80:   1388.69   0.007731   39.07  0.001737  (-0.017307 -0.010875 -0.036324)
 81:   1400.57   0.011180   56.50  0.002491  (-0.014858 -0.030437 -0.036660)
 82:   1416.13   0.000949    4.79  0.000209  ( 0.010082 -0.001493  0.010257)
 83:   1422.27   0.025870  130.74  0.005676  ( 0.008061  0.015306  0.073328)
 84:   1467.08   0.001331    6.73  0.000283  ( 0.007118  0.015119  0.001971)
 85:   1474.58   0.001871    9.46  0.000396  ( 0.003153 -0.002314  0.019512)
 86:   1477.41   0.001820    9.20  0.000384  ( 0.016470 -0.008230 -0.006744)
 87:   1485.77   0.001637    8.27  0.000344  ( 0.003836  0.013001 -0.012651)
 88:   1488.20   0.000971    4.91  0.000204  ( 0.010763 -0.006125 -0.007097)
 89:   1489.60   0.001514    7.65  0.000317  ( 0.013310 -0.002257  0.011615)
 90:   1492.52   0.003570   18.04  0.000746  (-0.024918 -0.011199  0.000109)
 91:   1498.04   0.000078    0.39  0.000016  (-0.002240  0.001312  0.003081)
 92:   1506.96   0.000795    4.02  0.000165  (-0.008601  0.001699 -0.009369)
 93:   1531.94   0.002926   14.79  0.000596  (-0.010295  0.021539  0.005117)
 94:   1568.52   0.117441  593.50  0.023365  (-0.123561 -0.020167  0.087699)
 95:   1609.35   0.031914  161.28  0.006188  (-0.012343 -0.024010 -0.073888)
 96:   1623.68   0.000147    0.75  0.000028  (-0.005309 -0.000354  0.000198)
 97:   1640.60   0.000053    0.27  0.000010  (-0.000859 -0.003048  0.000169)
 98:   2910.36   0.034267  173.17  0.003674  (-0.007708 -0.004879  0.059925)
 99:   2941.12   0.029873  150.96  0.003170  ( 0.010412  0.031114  0.045750)
100:   3015.29   0.006682   33.77  0.000691  ( 0.022838 -0.012657 -0.003120)
101:   3016.49   0.009052   45.74  0.000936  (-0.011632 -0.021003  0.018974)
102:   3017.24   0.014057   71.04  0.001454  (-0.004225 -0.016912 -0.033912)
103:   3055.39   0.021608  109.20  0.002207  ( 0.038136 -0.027429  0.000546)
104:   3058.73   0.015598   78.83  0.001591  (-0.020616 -0.034047  0.002670)
105:   3058.81   0.001106    5.59  0.000113  (-0.008249  0.005023 -0.004423)
106:   3063.18   0.015551   78.59  0.001584  ( 0.005758  0.025457 -0.030051)
107:   3064.40   0.030527  154.27  0.003109  ( 0.005947  0.030881  0.046040)
108:   3072.69   0.013052   65.96  0.001326  ( 0.024189  0.008630 -0.025807)
109:   3120.58   0.003898   19.70  0.000390  (-0.016842  0.007081  0.007484)
110:   3129.67   0.002889   14.60  0.000288  ( 0.006064  0.012363  0.009921)
111:   3147.71   0.000542    2.74  0.000054  ( 0.007063 -0.001802 -0.000757)
112:   3172.06   0.000088    0.45  0.000009  (-0.001527  0.001423  0.002085)
113:   3177.87   0.000432    2.18  0.000042  (-0.000431 -0.006495  0.000125)
114:   3185.50   0.003315   16.75  0.000325  (-0.011450  0.007104  0.011964)
115:   3194.72   0.003117   15.75  0.000304  (-0.004973 -0.016515  0.002639)
116:   3203.47   0.001724    8.71  0.000168  ( 0.009268  0.002990 -0.008548)
117:   3519.66   0.008815   44.55  0.000782  ( 0.021181 -0.000311  0.018243)
118:   3759.21   0.008242   41.65  0.000684  ( 0.004001  0.010401  0.023664)
119:   3839.06   0.025106  126.88  0.002041  (-0.015191  0.042228 -0.005175)

--------------------------
THERMOCHEMISTRY AT 298.15K
--------------------------

Temperature         ... 298.15 K
Pressure            ... 1.00 atm
Total Mass          ... 254.33 AMU

Throughout the following assumptions are being made:
  (1) The electronic state is orbitally nondegenerate
  (2) There are no thermally accessible electronically excited states
  (3) Hindered rotations indicated by low frequency modes are not
      treated as such but are treated as vibrations and this may
      cause some error
  (4) All equations used are the standard statistical mechanics
      equations for an ideal gas
  (5) All vibrations are strictly harmonic

freq.      16.39  E(vib)   ...       0.57
freq.      26.47  E(vib)   ...       0.56
freq.      31.43  E(vib)   ...       0.55
freq.      32.92  E(vib)   ...       0.55
freq.      45.83  E(vib)   ...       0.53
freq.      49.54  E(vib)   ...       0.52
freq.      55.32  E(vib)   ...       0.52
freq.      60.63  E(vib)   ...       0.51
freq.      64.47  E(vib)   ...       0.51
freq.      75.98  E(vib)   ...       0.49
freq.      87.65  E(vib)   ...       0.48
freq.     100.89  E(vib)   ...       0.46
freq.     105.76  E(vib)   ...       0.45
freq.     179.11  E(vib)   ...       0.37
freq.     221.12  E(vib)   ...       0.33
freq.     233.15  E(vib)   ...       0.32
freq.     252.01  E(vib)   ...       0.30
freq.     261.12  E(vib)   ...       0.30
freq.     263.88  E(vib)   ...       0.29
freq.     275.06  E(vib)   ...       0.28
freq.     294.10  E(vib)   ...       0.27
freq.     373.68  E(vib)   ...       0.21
freq.     412.96  E(vib)   ...       0.19
freq.     417.22  E(vib)   ...       0.18
freq.     442.50  E(vib)   ...       0.17
freq.     444.99  E(vib)   ...       0.17
freq.     456.50  E(vib)   ...       0.16
freq.     498.56  E(vib)   ...       0.14
freq.     558.66  E(vib)   ...       0.12
freq.     601.88  E(vib)   ...       0.10
freq.     633.79  E(vib)   ...       0.09
freq.     663.22  E(vib)   ...       0.08
freq.     713.60  E(vib)   ...       0.07
freq.     734.86  E(vib)   ...       0.06
freq.     784.66  E(vib)   ...       0.05
freq.     787.70  E(vib)   ...       0.05
freq.     821.83  E(vib)   ...       0.05
freq.     822.07  E(vib)   ...       0.05
freq.     832.31  E(vib)   ...       0.04
freq.     862.36  E(vib)   ...       0.04
freq.     871.24  E(vib)   ...       0.04
freq.     871.92  E(vib)   ...       0.04
freq.     880.05  E(vib)   ...       0.04
freq.     913.99  E(vib)   ...       0.03
freq.     943.95  E(vib)   ...       0.03
freq.     979.00  E(vib)   ...       0.03
freq.     994.16  E(vib)   ...       0.02
freq.    1011.03  E(vib)   ...       0.02
freq.    1015.19  E(vib)   ...       0.02
freq.    1026.83  E(vib)   ...       0.02
freq.    1048.36  E(vib)   ...       0.02
freq.    1051.78  E(vib)   ...       0.02
freq.    1059.72  E(vib)   ...       0.02
freq.    1064.44  E(vib)   ...       0.02
freq.    1073.13  E(vib)   ...       0.02
freq.    1099.54  E(vib)   ...       0.02
freq.    1125.83  E(vib)   ...       0.01
freq.    1139.08  E(vib)   ...       0.01
freq.    1166.51  E(vib)   ...       0.01
freq.    1168.49  E(vib)   ...       0.01
freq.    1177.47  E(vib)   ...       0.01
freq.    1177.64  E(vib)   ...       0.01
freq.    1203.49  E(vib)   ...       0.01
freq.    1223.10  E(vib)   ...       0.01
freq.    1280.94  E(vib)   ...       0.01
freq.    1289.17  E(vib)   ...       0.01
freq.    1304.96  E(vib)   ...       0.01
freq.    1307.67  E(vib)   ...       0.01
freq.    1331.56  E(vib)   ...       0.01
freq.    1342.85  E(vib)   ...       0.01
freq.    1356.02  E(vib)   ...       0.01
freq.    1361.86  E(vib)   ...       0.01
freq.    1373.01  E(vib)   ...       0.01
freq.    1376.60  E(vib)   ...       0.01
freq.    1388.69  E(vib)   ...       0.00
freq.    1400.57  E(vib)   ...       0.00
freq.    1416.13  E(vib)   ...       0.00
freq.    1422.27  E(vib)   ...       0.00
freq.    1467.08  E(vib)   ...       0.00
freq.    1474.58  E(vib)   ...       0.00
freq.    1477.41  E(vib)   ...       0.00
freq.    1485.77  E(vib)   ...       0.00
freq.    1488.20  E(vib)   ...       0.00
freq.    1489.60  E(vib)   ...       0.00
freq.    1492.52  E(vib)   ...       0.00
freq.    1498.04  E(vib)   ...       0.00
freq.    1506.96  E(vib)   ...       0.00
freq.    1531.94  E(vib)   ...       0.00
freq.    1568.52  E(vib)   ...       0.00
freq.    1609.35  E(vib)   ...       0.00
freq.    1623.68  E(vib)   ...       0.00
freq.    1640.60  E(vib)   ...       0.00
freq.    2910.36  E(vib)   ...       0.00
freq.    2941.12  E(vib)   ...       0.00
freq.    3015.29  E(vib)   ...       0.00
freq.    3016.49  E(vib)   ...       0.00
freq.    3017.24  E(vib)   ...       0.00
freq.    3055.39  E(vib)   ...       0.00
freq.    3058.73  E(vib)   ...       0.00
freq.    3058.81  E(vib)   ...       0.00
freq.    3063.18  E(vib)   ...       0.00
freq.    3064.40  E(vib)   ...       0.00
freq.    3072.69  E(vib)   ...       0.00
freq.    3120.58  E(vib)   ...       0.00
freq.    3129.67  E(vib)   ...       0.00
freq.    3147.71  E(vib)   ...       0.00
freq.    3172.06  E(vib)   ...       0.00
freq.    3177.87  E(vib)   ...       0.00
freq.    3185.50  E(vib)   ...       0.00
freq.    3194.72  E(vib)   ...       0.00
freq.    3203.47  E(vib)   ...       0.00
freq.    3519.66  E(vib)   ...       0.00
freq.    3759.21  E(vib)   ...       0.00
freq.    3839.06  E(vib)   ...       0.00

------------
INNER ENERGY
------------

The inner energy is: U= E(el) + E(ZPE) + E(vib) + E(rot) + E(trans)
    E(el)   - is the total energy from the electronic structure calculation
              = E(kin-el) + E(nuc-el) + E(el-el) + E(nuc-nuc)
    E(ZPE)  - the the zero temperature vibrational energy from the frequency calculation
    E(vib)  - the the finite temperature correction to E(ZPE) due to population
              of excited vibrational states
    E(rot)  - is the rotational thermal energy
    E(trans)- is the translational thermal energy

Summary of contributions to the inner energy U:
Electronic energy                ...   -843.64377071 Eh
Zero point energy                ...      0.34152434 Eh     214.31 kcal/mol
Thermal vibrational correction   ...      0.01877054 Eh      11.78 kcal/mol
Thermal rotational correction    ...      0.00141627 Eh       0.89 kcal/mol
Thermal translational correction ...      0.00141627 Eh       0.89 kcal/mol
-----------------------------------------------------------------------
Total thermal energy                   -843.28064329 Eh

Summary of corrections to the electronic energy:
(perhaps to be used in another calculation)
Total thermal correction                  0.02160309 Eh      13.56 kcal/mol
Non-thermal (ZPE) correction              0.34152434 Eh     214.31 kcal/mol
-----------------------------------------------------------------------
Total correction                          0.36312742 Eh     227.87 kcal/mol

Rotational constants in cm-1:     0.018379     0.008508     0.007233

                             ****ORCA TERMINATED NORMALLY****
TOTAL RUN TIME: 0 days 1 hours 15 minutes 28 seconds 380 msec
