                         Program Version 5.0.4 -  RELEASE  -
|  1> !  NUMFREQ B3LYP def2-TZVP CPCM D3
|  2> %pal nprocs 102 end
|  3> %cpcm epsilon 78.4 end
|  4> *xyz -1 1
|  5> C   -2.30464014848278 0.72763458466024 -0.44420667920315
|  6> C   -1.01197202230754 0.69185711953914 0.04350343577021
|  7> C   -0.05083013227896 -0.16805606961217 -0.50627789658735
|  8> C   -0.43365014453427 -1.0109540719666 -1.55497914674746
|  9> C   -1.72584836485977 -0.9921281650286 -2.05515703805846
| 10> C   -2.64813637759601 -0.11862646064301 -1.49406480254355
| 11> H   -3.04285190108956 1.38756911067654 -0.01457643978367
| 12> H   -0.73960566894996 1.33315743870864 0.868610669752
| 13> H   0.28201546298777 -1.68985779301763 -1.99566098898666
| 14> C   1.32999410353942 -0.22528702651272 0.07364170756143
| 15> H   1.19435830285241 -0.16284283654258 1.30803773561243 M = 2
| 16> C   2.13825462578643 -1.47702989006006 -0.20711985626983
| 17> H   3.01347995222877 -1.5176697360525 0.43743992782761
| 18> H   2.47477071494591 -1.54386350678983 -1.24459369374335
| 19> H   1.51888450576571 -2.34700219307718 0.011532857224
| 20> N   2.101693870776 0.99237216332408 -0.18307054595787
| 21> O   3.33370430496651 0.92208544472784 -0.14885739856172
| 22> O   1.51607555829377 2.06742352998828 -0.33836336513849
| 23> O   2.64327083281436 1.82092419869132 3.53642277837023
| 24> H   2.29652781335872 2.14466497718408 4.37494324973002
| 25> H   -2.01451325090521 -1.63803562677165 -2.87042622283186
| 26> N   -4.01145424874978 -0.09474003943342 -2.01096341136261
| 27> O   -4.31889569880957 -0.89890790004052 -2.88518974003407
| 28> O   -4.79659947577501 0.72811095636666 -1.55019607686953
| 29> H   0.15801817153829 0.12237345285902 2.86930866722738
| 30> H   2.02022766252508 1.07603239252174 3.25794557047967
| 31> O   1.07772155195925 -0.12920405369908 2.72231670312465
| 32> *
| 33>
| 34>                          ****END OF INPUT****

CARTESIAN COORDINATES (ANGSTROEM)
---------------------------------
  C     -2.304640    0.727635   -0.444207
  C     -1.011972    0.691857    0.043503
  C     -0.050830   -0.168056   -0.506278
  C     -0.433650   -1.010954   -1.554979
  C     -1.725848   -0.992128   -2.055157
  C     -2.648136   -0.118626   -1.494065
  H     -3.042852    1.387569   -0.014576
  H     -0.739606    1.333157    0.868611
  H      0.282015   -1.689858   -1.995661
  C      1.329994   -0.225287    0.073642
  H      1.194358   -0.162843    1.308038
  C      2.138255   -1.477030   -0.207120
  H      3.013480   -1.517670    0.437440
  H      2.474771   -1.543864   -1.244594
  H      1.518885   -2.347002    0.011533
  N      2.101694    0.992372   -0.183071
  O      3.333704    0.922085   -0.148857
  O      1.516076    2.067424   -0.338363
  O      2.643271    1.820924    3.536423
  H      2.296528    2.144665    4.374943
  H     -2.014513   -1.638036   -2.870426
  N     -4.011454   -0.094740   -2.010963
  O     -4.318896   -0.898908   -2.885190
  O     -4.796599    0.728111   -1.550196
  H      0.158018    0.122373    2.869309
  H      2.020228    1.076032    3.257946
  O      1.077722   -0.129204    2.722317

 Total Charge           Charge          ....   -1
 Multiplicity           Mult            ....    1
 Number of Electrons    NEL             ....  122
 Basis Dimension        Dim             ....  562

ORBITAL ENERGIES
----------------

  NO   OCC          E(Eh)            E(eV)
   0   2.0000     -19.164454      -521.4913
   1   2.0000     -19.164330      -521.4879
   2   2.0000     -19.142704      -520.8994
   3   2.0000     -19.141295      -520.8611
   4   2.0000     -19.081618      -519.2372
   5   2.0000     -19.047170      -518.2998
   6   2.0000     -14.557866      -396.1397
   7   2.0000     -14.530328      -395.3903
   8   2.0000     -10.232918      -278.4519
   9   2.0000     -10.202246      -277.6172
  10   2.0000     -10.200161      -277.5605
  11   2.0000     -10.194909      -277.4176
  12   2.0000     -10.193803      -277.3875
  13   2.0000     -10.185752      -277.1684
  14   2.0000     -10.184134      -277.1244
  15   2.0000     -10.159488      -276.4537
  16   2.0000      -1.237165       -33.6650
  17   2.0000      -1.210496       -32.9393
  18   2.0000      -1.061265       -28.8785
  19   2.0000      -1.034167       -28.1411
  20   2.0000      -0.964448       -26.2440
  21   2.0000      -0.899112       -24.4661
  22   2.0000      -0.890290       -24.2260
  23   2.0000      -0.838157       -22.8074
  24   2.0000      -0.789499       -21.4833
  25   2.0000      -0.767022       -20.8717
  26   2.0000      -0.700277       -19.0555
  27   2.0000      -0.693729       -18.8773
  28   2.0000      -0.626978       -17.0609
  29   2.0000      -0.604094       -16.4382
  30   2.0000      -0.570383       -15.5209
  31   2.0000      -0.565724       -15.3941
  32   2.0000      -0.544483       -14.8161
  33   2.0000      -0.533617       -14.5205
  34   2.0000      -0.530497       -14.4356
  35   2.0000      -0.525789       -14.3074
  36   2.0000      -0.506848       -13.7920
  37   2.0000      -0.490004       -13.3337
  38   2.0000      -0.474214       -12.9040
  39   2.0000      -0.460983       -12.5440
  40   2.0000      -0.457760       -12.4563
  41   2.0000      -0.439417       -11.9572
  42   2.0000      -0.412509       -11.2249
  43   2.0000      -0.395991       -10.7755
  44   2.0000      -0.393299       -10.7022
  45   2.0000      -0.388250       -10.5648
  46   2.0000      -0.372173       -10.1273
  47   2.0000      -0.364294        -9.9130
  48   2.0000      -0.357550        -9.7294
  49   2.0000      -0.339870        -9.2483
  50   2.0000      -0.327410        -8.9093
  51   2.0000      -0.326285        -8.8787
  52   2.0000      -0.308998        -8.4083
  53   2.0000      -0.306862        -8.3501
  54   2.0000      -0.305742        -8.3197
  55   2.0000      -0.291248        -7.9253
  56   2.0000      -0.284031        -7.7289
  57   2.0000      -0.275054        -7.4846
  58   2.0000      -0.267435        -7.2773
  59   2.0000      -0.248533        -6.7629
  60   2.0000      -0.217409        -5.9160
  61   0.0000      -0.100722        -2.7408
  62   0.0000      -0.057732        -1.5710
  63   0.0000      -0.023562        -0.6411
  64   0.0000      -0.005147        -0.1401
  65   0.0000       0.043040         1.1712

MULLIKEN ATOMIC CHARGES
-----------------------
   0 C :   -0.194704
   1 C :   -0.163497
   2 C :    0.106129
   3 C :   -0.167279
   4 C :   -0.188635
   5 C :    0.145107
   6 H :    0.162600
   7 H :    0.132310
   8 H :    0.161267
   9 C :    0.000006
  10 H :    0.223595
  11 C :   -0.400678
  12 H :    0.132473
  13 H :    0.127097
  14 H :    0.136413
  15 N :    0.420450
  16 O :   -0.403183
  17 O :   -0.403845
  18 O :   -0.788715
  19 H :    0.330186
  20 H :    0.163207
  21 N :    0.443180
  22 O :   -0.362429
  23 O :   -0.362515
  24 H :    0.301345
  25 H :    0.353852
  26 O :   -0.903738
Sum of atomic charges:   -1.0000000

LOEWDIN ATOMIC CHARGES
----------------------
   0 C :   -0.089861
   1 C :   -0.092305
   2 C :   -0.110976
   3 C :   -0.086371
   4 C :   -0.087750
   5 C :   -0.166114
   6 H :    0.160213
   7 H :    0.154122
   8 H :    0.161521
   9 C :   -0.265549
  10 H :    0.187052
  11 C :   -0.287653
  12 H :    0.125595
  13 H :    0.123993
  14 H :    0.133919
  15 N :   -0.034625
  16 O :   -0.103066
  17 O :   -0.099810
  18 O :   -0.425897
  19 H :    0.148082
  20 H :    0.160490
  21 N :   -0.013950
  22 O :   -0.061384
  23 O :   -0.061444
  24 H :    0.108503
  25 H :    0.124073
  26 O :   -0.600807

  Mayer bond orders larger than 0.100000
B(  0-C ,  1-C ) :   1.4601 B(  0-C ,  5-C ) :   1.3304 B(  0-C ,  6-H ) :   0.9532
B(  1-C ,  2-C ) :   1.3024 B(  1-C ,  7-H ) :   0.9680 B(  2-C ,  3-C ) :   1.3264
B(  2-C ,  9-C ) :   0.9218 B(  3-C ,  4-C ) :   1.4543 B(  3-C ,  8-H ) :   0.9676
B(  4-C ,  5-C ) :   1.3483 B(  4-C , 20-H ) :   0.9521 B(  5-C , 21-N ) :   1.0085
B(  9-C , 10-H ) :   0.5954 B(  9-C , 11-C ) :   0.9244 B(  9-C , 15-N ) :   0.9424
B(  9-C , 26-O ) :  -0.1821 B( 10-H , 26-O ) :   0.4213 B( 11-C , 12-H ) :   0.9675
B( 11-C , 13-H ) :   0.9585 B( 11-C , 14-H ) :   0.9805 B( 15-N , 16-O ) :   1.5467
B( 15-N , 17-O ) :   1.5692 B( 16-O , 17-O ) :   0.1501 B( 18-O , 19-H ) :   0.8983
B( 18-O , 25-H ) :   0.7484 B( 21-N , 22-O ) :   1.5849 B( 21-N , 23-O ) :   1.5844
B( 22-O , 23-O ) :   0.1825 B( 24-H , 26-O ) :   0.9122 B( 25-H , 26-O ) :   0.2067

Dispersion correction           -0.049808394
FINAL SINGLE POINT ENERGY      -872.240432305819
Dispersion correction            ... done

DIPOLE MOMENT
-------------
                                X             Y             Z
Electronic contribution:    -11.99642       2.69228     -10.80133
Nuclear contribution   :      8.99601      -4.51163       8.40772
                        -----------------------------------------
Total Dipole Moment    :     -3.00041      -1.81936      -2.39361
                        -----------------------------------------
Magnitude (a.u.)       :      4.24758
Magnitude (Debye)      :     10.79648

VIBRATIONAL FREQUENCIES
-----------------------

Scaling factor for frequencies =  1.000000000 (already applied!)

   0:         0.00 cm**-1
   1:         0.00 cm**-1
   2:         0.00 cm**-1
   3:         0.00 cm**-1
   4:         0.00 cm**-1
   5:         0.00 cm**-1
   6:      -467.51 cm**-1 ***imaginary mode***
   7:       -57.40 cm**-1 ***imaginary mode***
   8:        21.82 cm**-1
   9:        32.26 cm**-1
  10:        44.12 cm**-1
  11:        52.88 cm**-1
  12:        60.16 cm**-1
  13:        70.20 cm**-1
  14:        82.67 cm**-1
  15:       101.72 cm**-1
  16:       158.33 cm**-1
  17:       192.28 cm**-1
  18:       249.64 cm**-1
  19:       266.74 cm**-1
  20:       274.24 cm**-1
  21:       293.10 cm**-1
  22:       296.81 cm**-1
  23:       340.96 cm**-1
  24:       360.39 cm**-1
  25:       419.66 cm**-1
  26:       430.23 cm**-1
  27:       488.62 cm**-1
  28:       507.24 cm**-1
  29:       527.06 cm**-1
  30:       541.63 cm**-1
  31:       589.74 cm**-1
  32:       596.68 cm**-1
  33:       645.75 cm**-1
  34:       661.91 cm**-1
  35:       710.51 cm**-1
  36:       725.30 cm**-1
  37:       758.42 cm**-1
  38:       792.16 cm**-1
  39:       817.77 cm**-1
  40:       843.84 cm**-1
  41:       874.98 cm**-1
  42:       889.37 cm**-1
  43:       912.08 cm**-1
  44:       917.69 cm**-1
  45:       978.22 cm**-1
  46:       996.64 cm**-1
  47:      1001.06 cm**-1
  48:      1034.97 cm**-1
  49:      1062.25 cm**-1
  50:      1101.91 cm**-1
  51:      1125.01 cm**-1
  52:      1136.11 cm**-1
  53:      1144.78 cm**-1
  54:      1177.95 cm**-1
  55:      1212.83 cm**-1
  56:      1303.60 cm**-1
  57:      1333.79 cm**-1
  58:      1340.37 cm**-1
  59:      1355.83 cm**-1
  60:      1370.94 cm**-1
  61:      1419.76 cm**-1
  62:      1440.12 cm**-1
  63:      1474.69 cm**-1
  64:      1482.21 cm**-1
  65:      1494.11 cm**-1
  66:      1522.32 cm**-1
  67:      1529.76 cm**-1
  68:      1628.01 cm**-1
  69:      1635.74 cm**-1
  70:      1654.12 cm**-1
  71:      2879.72 cm**-1
  72:      3034.54 cm**-1
  73:      3100.59 cm**-1
  74:      3128.19 cm**-1
  75:      3206.11 cm**-1
  76:      3212.20 cm**-1
  77:      3227.76 cm**-1
  78:      3228.48 cm**-1
  79:      3790.27 cm**-1
  80:      3819.12 cm**-1

IR SPECTRUM
-----------

 Mode   freq       eps      Int      T**2         TX        TY        TZ
       cm**-1   L/(mol*cm) km/mol    a.u.
----------------------------------------------------------------------------
  8:     21.82   0.001792    9.05  0.025624  (-0.076144  0.107882 -0.090485)
  9:     32.26   0.003607   18.23  0.034896  (-0.111803  0.072973 -0.130657)
 10:     44.12   0.002077   10.50  0.014690  ( 0.097926  0.042577 -0.057340)
 11:     52.88   0.000654    3.31  0.003861  ( 0.045087  0.042579  0.003846)
 12:     60.16   0.000346    1.75  0.001794  ( 0.006208  0.037410 -0.018875)
 13:     70.20   0.000533    2.70  0.002371  (-0.042579 -0.001820 -0.023560)
 14:     82.67   0.003393   17.15  0.012810  (-0.029399 -0.009062 -0.108920)
 15:    101.72   0.001946    9.83  0.005968  ( 0.060668 -0.035534 -0.032019)
 16:    158.33   0.000960    4.85  0.001893  ( 0.042532  0.008651 -0.002964)
 17:    192.28   0.002495   12.61  0.004049  ( 0.039674  0.042904  0.025174)
 18:    249.64   0.001591    8.04  0.001989  (-0.018011 -0.030250 -0.027373)
 19:    266.74   0.009244   46.71  0.010814  (-0.054630 -0.058019 -0.066810)
 20:    274.24   0.000924    4.67  0.001052  (-0.009427 -0.027108 -0.015102)
 21:    293.10   0.008835   44.65  0.009406  (-0.063058 -0.071995  0.015709)
 22:    296.81   0.011753   59.39  0.012356  ( 0.042220  0.096256 -0.036177)
 23:    340.96   0.002665   13.47  0.002439  (-0.003048 -0.031907  0.037570)
 24:    360.39   0.002687   13.58  0.002327  ( 0.008557  0.005093  0.047196)
 25:    419.66   0.001756    8.88  0.001306  ( 0.016373 -0.006122  0.031629)
 26:    430.23   0.041510  209.77  0.030108  ( 0.004525  0.030468 -0.170762)
 27:    488.62   0.020114  101.65  0.012846  (-0.026023 -0.033892  0.104978)
 28:    507.24   0.002999   15.16  0.001845  (-0.033026  0.010850  0.025234)
 29:    527.06   0.004535   22.92  0.002685  ( 0.015998  0.047049  0.014688)
 30:    541.63   0.018811   95.06  0.010838  ( 0.007572  0.032137  0.098733)
 31:    589.74   0.019208   97.07  0.010164  ( 0.013650  0.084312 -0.053564)
 32:    596.68   0.052912  267.40  0.027673  ( 0.055631  0.038574  0.151954)
 33:    645.75   0.004400   22.23  0.002126  (-0.011243 -0.008424  0.043918)
 34:    661.91   0.042488  214.71  0.020031  (-0.029024 -0.045598  0.130804)
 35:    710.51   0.029195  147.54  0.012823  ( 0.016280  0.042531 -0.103676)
 36:    725.30   0.028952  146.31  0.012457  ( 0.002801  0.056423 -0.096256)
 37:    758.42   0.007042   35.59  0.002897  ( 0.038266  0.036487  0.010094)
 38:    792.16   0.001984   10.03  0.000782  (-0.024724 -0.008329 -0.010042)
 39:    817.77   0.013221   66.81  0.005045  (-0.024878 -0.019465  0.063618)
 40:    843.84   0.002074   10.48  0.000767  ( 0.024529  0.008998 -0.009188)
 41:    874.98   0.010176   51.42  0.003629  (-0.059279 -0.001367 -0.010647)
 42:    889.37   0.020614  104.18  0.007233  ( 0.022115  0.047890 -0.066713)
 43:    912.08   0.015008   75.84  0.005135  ( 0.002163 -0.063595 -0.032952)
 44:    917.69   0.032188  162.67  0.010946  (-0.070722  0.040128 -0.065832)
 45:    978.22   0.002872   14.52  0.000916  (-0.028950 -0.008118 -0.003503)
 46:    996.64   0.000061    0.31  0.000019  (-0.003240 -0.002473  0.001573)
 47:   1001.06   0.000115    0.58  0.000036  (-0.004593  0.002962  0.002431)
 48:   1034.97   0.003123   15.78  0.000942  ( 0.029716  0.001242  0.007547)
 49:   1062.25   0.008803   44.48  0.002586  (-0.043228 -0.026031  0.006300)
 50:   1101.91   0.013958   70.54  0.003953  ( 0.033640 -0.039956  0.034998)
 51:   1125.01   0.047757  241.35  0.013247  (-0.110666 -0.019496 -0.024905)
 52:   1136.11   0.000944    4.77  0.000259  (-0.010359  0.007950  0.009416)
 53:   1144.78   0.003642   18.40  0.000993  (-0.011341 -0.024573  0.016135)
 54:   1177.95   0.006248   31.57  0.001655  ( 0.000123 -0.013734  0.038295)
 55:   1212.83   0.002869   14.50  0.000738  (-0.025858 -0.007809 -0.002919)
 56:   1303.60   0.015083   76.22  0.003611  ( 0.029457  0.050667  0.013261)
 57:   1333.79   0.064967  328.32  0.015200  (-0.115129 -0.035441 -0.026257)
 58:   1340.37   0.249046  1258.58  0.057982  ( 0.225027  0.023940  0.082294)
 59:   1355.83   0.006729   34.01  0.001549  ( 0.012392 -0.018468 -0.032468)
 60:   1370.94   0.020867  105.45  0.004750  (-0.004478 -0.068706 -0.003050)
 61:   1419.76   0.019730   99.71  0.004337  (-0.012339 -0.062066 -0.018228)
 62:   1440.12   0.007073   35.74  0.001533  ( 0.036165 -0.003794  0.014504)
 63:   1474.69   0.027417  138.56  0.005802  ( 0.058215 -0.036628  0.032731)
 64:   1482.21   0.082229  415.55  0.017312  ( 0.104423 -0.080049 -0.000739)
 65:   1494.11   0.025276  127.73  0.005279  (-0.069344  0.020706  0.006461)
 66:   1522.32   0.102693  518.97  0.021051  ( 0.023124 -0.108810 -0.093149)
 67:   1529.76   0.005329   26.93  0.001087  ( 0.029117 -0.015418 -0.001221)
 68:   1628.01   0.008310   42.00  0.001593  ( 0.002012  0.028126  0.028247)
 69:   1635.74   0.020673  104.47  0.003944  ( 0.061182 -0.007583  0.011973)
 70:   1654.12   0.017512   88.50  0.003304  (-0.045577 -0.010262  0.033486)
 71:   2879.72   0.419216  2118.55  0.045429  ( 0.122239  0.139020  0.105640)
 72:   3034.54   0.006379   32.23  0.000656  ( 0.011902 -0.018683 -0.012854)
 73:   3100.59   0.005440   27.49  0.000548  (-0.008634 -0.011096  0.018705)
 74:   3128.19   0.004283   21.65  0.000427  (-0.017745 -0.002428 -0.010320)
 75:   3206.11   0.000505    2.55  0.000049  ( 0.004499 -0.004812 -0.002389)
 76:   3212.20   0.000433    2.19  0.000042  (-0.000657 -0.003193 -0.005605)
 77:   3227.76   0.000130    0.65  0.000013  ( 0.001615  0.001913  0.002502)
 78:   3228.48   0.000555    2.81  0.000054  ( 0.006773 -0.000948  0.002625)
 79:   3790.27   0.002205   11.14  0.000182  ( 0.007600  0.000256 -0.011123)
 80:   3819.12   0.009413   47.57  0.000769  ( 0.001074 -0.013951 -0.023945)

--------------------------
THERMOCHEMISTRY AT 298.15K
--------------------------

Temperature         ... 298.15 K
Pressure            ... 1.00 atm
Total Mass          ... 232.18 AMU

Throughout the following assumptions are being made:
  (1) The electronic state is orbitally nondegenerate
  (2) There are no thermally accessible electronically excited states
  (3) Hindered rotations indicated by low frequency modes are not
      treated as such but are treated as vibrations and this may
      cause some error
  (4) All equations used are the standard statistical mechanics
      equations for an ideal gas
  (5) All vibrations are strictly harmonic

freq.      21.82  E(vib)   ...       0.56
freq.      32.26  E(vib)   ...       0.55
freq.      44.12  E(vib)   ...       0.53
freq.      52.88  E(vib)   ...       0.52
freq.      60.16  E(vib)   ...       0.51
freq.      70.20  E(vib)   ...       0.50
freq.      82.67  E(vib)   ...       0.48
freq.     101.72  E(vib)   ...       0.46
freq.     158.33  E(vib)   ...       0.39
freq.     192.28  E(vib)   ...       0.36
freq.     249.64  E(vib)   ...       0.31
freq.     266.74  E(vib)   ...       0.29
freq.     274.24  E(vib)   ...       0.28
freq.     293.10  E(vib)   ...       0.27
freq.     296.81  E(vib)   ...       0.27
freq.     340.96  E(vib)   ...       0.23
freq.     360.39  E(vib)   ...       0.22
freq.     419.66  E(vib)   ...       0.18
freq.     430.23  E(vib)   ...       0.18
freq.     488.62  E(vib)   ...       0.15
freq.     507.24  E(vib)   ...       0.14
freq.     527.06  E(vib)   ...       0.13
freq.     541.63  E(vib)   ...       0.12
freq.     589.74  E(vib)   ...       0.10
freq.     596.68  E(vib)   ...       0.10
freq.     645.75  E(vib)   ...       0.09
freq.     661.91  E(vib)   ...       0.08
freq.     710.51  E(vib)   ...       0.07
freq.     725.30  E(vib)   ...       0.06
freq.     758.42  E(vib)   ...       0.06
freq.     792.16  E(vib)   ...       0.05
freq.     817.77  E(vib)   ...       0.05
freq.     843.84  E(vib)   ...       0.04
freq.     874.98  E(vib)   ...       0.04
freq.     889.37  E(vib)   ...       0.04
freq.     912.08  E(vib)   ...       0.03
freq.     917.69  E(vib)   ...       0.03
freq.     978.22  E(vib)   ...       0.03
freq.     996.64  E(vib)   ...       0.02
freq.    1001.06  E(vib)   ...       0.02
freq.    1034.97  E(vib)   ...       0.02
freq.    1062.25  E(vib)   ...       0.02
freq.    1101.91  E(vib)   ...       0.02
freq.    1125.01  E(vib)   ...       0.01
freq.    1136.11  E(vib)   ...       0.01
freq.    1144.78  E(vib)   ...       0.01
freq.    1177.95  E(vib)   ...       0.01
freq.    1212.83  E(vib)   ...       0.01
freq.    1303.60  E(vib)   ...       0.01
freq.    1333.79  E(vib)   ...       0.01
freq.    1340.37  E(vib)   ...       0.01
freq.    1355.83  E(vib)   ...       0.01
freq.    1370.94  E(vib)   ...       0.01
freq.    1419.76  E(vib)   ...       0.00
freq.    1440.12  E(vib)   ...       0.00
freq.    1474.69  E(vib)   ...       0.00
freq.    1482.21  E(vib)   ...       0.00
freq.    1494.11  E(vib)   ...       0.00
freq.    1522.32  E(vib)   ...       0.00
freq.    1529.76  E(vib)   ...       0.00
freq.    1628.01  E(vib)   ...       0.00
freq.    1635.74  E(vib)   ...       0.00
freq.    1654.12  E(vib)   ...       0.00
freq.    2879.72  E(vib)   ...       0.00
freq.    3034.54  E(vib)   ...       0.00
freq.    3100.59  E(vib)   ...       0.00
freq.    3128.19  E(vib)   ...       0.00
freq.    3206.11  E(vib)   ...       0.00
freq.    3212.20  E(vib)   ...       0.00
freq.    3227.76  E(vib)   ...       0.00
freq.    3228.48  E(vib)   ...       0.00
freq.    3790.27  E(vib)   ...       0.00
freq.    3819.12  E(vib)   ...       0.00

------------
INNER ENERGY
------------

The inner energy is: U= E(el) + E(ZPE) + E(vib) + E(rot) + E(trans)
    E(el)   - is the total energy from the electronic structure calculation
              = E(kin-el) + E(nuc-el) + E(el-el) + E(nuc-nuc)
    E(ZPE)  - the the zero temperature vibrational energy from the frequency calculation
    E(vib)  - the the finite temperature correction to E(ZPE) due to population
              of excited vibrational states
    E(rot)  - is the rotational thermal energy
    E(trans)- is the translational thermal energy

Summary of contributions to the inner energy U:
Electronic energy                ...   -872.24043231 Eh
Zero point energy                ...      0.18939105 Eh     118.84 kcal/mol
Thermal vibrational correction   ...      0.01388134 Eh       8.71 kcal/mol
Thermal rotational correction    ...      0.00141627 Eh       0.89 kcal/mol
Thermal translational correction ...      0.00141627 Eh       0.89 kcal/mol
-----------------------------------------------------------------------
Total thermal energy                   -872.03432737 Eh

Summary of corrections to the electronic energy:
(perhaps to be used in another calculation)
Total thermal correction                  0.01671388 Eh      10.49 kcal/mol
Non-thermal (ZPE) correction              0.18939105 Eh     118.84 kcal/mol
-----------------------------------------------------------------------
Total correction                          0.20610494 Eh     129.33 kcal/mol

--------
ENTHALPY
--------

The enthalpy is H = U + kB*T
                kB is Boltzmann's constant
Total free energy                 ...   -872.03432737 Eh
Thermal Enthalpy correction       ...      0.00094421 Eh       0.59 kcal/mol
-----------------------------------------------------------------------
Total Enthalpy                    ...   -872.03338316 Eh

Note: Only C1 symmetry has been detected, increase convergence thresholds
      if your molecule has a higher symmetry. Symmetry factor of 1.0 is
      used for the rotational entropy correction.

Note: Rotational entropy computed according to Herzberg
Infrared and Raman Spectra, Chapter V,1, Van Nostrand Reinhold, 1945
Point Group:  C1, Symmetry Number:   1
Rotational constants in cm-1:     0.032746     0.007728     0.007129

Vibrational entropy computed according to the QRRHO of S. Grimme
Chem.Eur.J. 2012 18 9955

-------
ENTROPY
-------

The entropy contributions are T*S = T*(S(el)+S(vib)+S(rot)+S(trans))
     S(el)   - electronic entropy
     S(vib)  - vibrational entropy
     S(rot)  - rotational entropy
     S(trans)- translational entropy
The entropies will be listed as multiplied by the temperature to get
units of energy

Electronic entropy                ...      0.00000000 Eh      0.00 kcal/mol

                             ****ORCA TERMINATED NORMALLY****
TOTAL RUN TIME: 0 days 0 hours 31 minutes 7 seconds 751 msec
