                         Program Version 5.0.4 -  RELEASE  -
|  1> !  NUMFREQ B3LYP def2-TZVP CPCM D3
|  2> %pal nprocs 102 end
|  3> %cpcm epsilon 78.4 end
|  4> *xyz 0 1
|  5> C   -1.6910213851371 2.49582877469083 -1.3121158048153
|  6> C   -1.33632020189334 1.16711027268318 -1.52485099161714
|  7> C   -2.15326813009062 0.13227273984686 -1.10713982767731
|  8> C   -3.3496079520723 0.44264698753263 -0.45214849024528
|  9> C   -3.70865269649955 1.7649019789986 -0.22945846056971
| 10> C   -2.8798210415074 2.79821029918309 -0.66020263283074
| 11> H   -1.03295139843352 3.28582412282602 -1.65015671599903
| 12> H   -0.41158653408903 0.94437428034829 -2.04717715403776
| 13> H   -4.00626012263254 -0.35032865845591 -0.11879366270081
| 14> H   -3.16247871417922 3.82900918097808 -0.48772969125236
| 15> C   -1.77035019126093 -1.30540565168547 -1.38008778875725
| 16> C   -1.96003282348806 -2.27008076331754 -0.23112352715423
| 17> H   -1.61642374158446 -3.25866915523664 -0.53871344359578
| 18> H   -2.99867789765122 -2.34012324955389 0.08584128252093
| 19> H   -1.38404063131498 -1.95809081537172 0.63596539043567
| 20> N   -2.62200890950566 -1.77285060916356 -2.58134736080646
| 21> O   -2.16887297706848 -1.5519675379187 -3.69354242355923
| 22> O   -3.69855399146092 -2.30294960664059 -2.37446400995338
| 23> N   1.1517929748801 0.08971840046217 0.83262358217679
| 24> C   1.88271655685675 -1.14429783825054 1.13762018609162
| 25> C   2.62117753761786 -1.01740962146695 2.46742771199155
| 26> C   3.55668336538745 0.19276472879784 2.45648463857306
| 27> C   2.79183143444531 1.45564721488639 2.06001206265705
| 28> C   2.05155904649716 1.24551581188392 0.74320181982756
| 29> H   1.45449168917282 2.12682720038571 0.49835208968663
| 30> H   2.79083471191827 1.11685251702074 -0.06639495605633
| 31> H   3.47078035647996 2.30683383757512 1.96483129105541
| 32> H   2.06534388138844 1.70293931525078 2.84107440935067
| 33> H   3.18122296439267 -1.93551062899404 2.66172694847851
| 34> H   1.88623310196243 -0.90862494872387 3.27178921596508
| 35> H   2.61916814141471 -1.37935167444451 0.3514125455232
| 36> H   -0.76312304803738 -1.35986221064887 -1.78916693955797
| 37> H   0.69407544640302 -0.00604680032498 -0.06889398460493
| 38> H   1.17269098850131 -1.96858823647564 1.19697113391778
| 39> H   4.03365146586583 0.3195791582168 3.43152318858659
| 40> H   4.35854884169303 0.01875259264407 1.72962305965067
| 41> H   -4.63783679164907 1.9889773879637 0.27899423112801
| 42> H   2.00935028423305 -1.53111650703865 -1.70692152567994
| 43> H   2.05146817995985 -0.13529556722331 -2.35695101519186
| 44> O   1.5082682104858 -0.92801672123943 -2.26809438095398
| 45> *
| 46>
| 47>                          ****END OF INPUT****

CARTESIAN COORDINATES (ANGSTROEM)
---------------------------------
  C     -1.691021    2.495829   -1.312116
  C     -1.336320    1.167110   -1.524851
  C     -2.153268    0.132273   -1.107140
  C     -3.349608    0.442647   -0.452148
  C     -3.708653    1.764902   -0.229458
  C     -2.879821    2.798210   -0.660203
  H     -1.032951    3.285824   -1.650157
  H     -0.411587    0.944374   -2.047177
  H     -4.006260   -0.350329   -0.118794
  H     -3.162479    3.829009   -0.487730
  C     -1.770350   -1.305406   -1.380088
  C     -1.960033   -2.270081   -0.231124
  H     -1.616424   -3.258669   -0.538713
  H     -2.998678   -2.340123    0.085841
  H     -1.384041   -1.958091    0.635965
  N     -2.622009   -1.772851   -2.581347
  O     -2.168873   -1.551968   -3.693542
  O     -3.698554   -2.302950   -2.374464
  N      1.151793    0.089718    0.832624
  C      1.882717   -1.144298    1.137620
  C      2.621178   -1.017410    2.467428
  C      3.556683    0.192765    2.456485
  C      2.791831    1.455647    2.060012
  C      2.051559    1.245516    0.743202
  H      1.454492    2.126827    0.498352
  H      2.790835    1.116853   -0.066395
  H      3.470780    2.306834    1.964831
  H      2.065344    1.702939    2.841074
  H      3.181223   -1.935511    2.661727
  H      1.886233   -0.908625    3.271789
  H      2.619168   -1.379352    0.351413
  H     -0.763123   -1.359862   -1.789167
  H      0.694075   -0.006047   -0.068894
  H      1.172691   -1.968588    1.196971
  H      4.033651    0.319579    3.431523
  H      4.358549    0.018753    1.729623
  H     -4.637837    1.988977    0.278994
  H      2.009350   -1.531117   -1.706922
  H      2.051468   -0.135296   -2.356951
  O      1.508268   -0.928017   -2.268094

 Total Charge           Charge          ....    0
 Multiplicity           Mult            ....    1
 Number of Electrons    NEL             ....  138
 Basis Dimension        Dim             ....  690

ORBITAL ENERGIES
----------------

  NO   OCC          E(Eh)            E(eV)
   0   2.0000     -19.171789      -521.6909
   1   2.0000     -19.169526      -521.6293
   2   2.0000     -19.127333      -520.4812
   3   2.0000     -14.551319      -395.9615
   4   2.0000     -14.290263      -388.8578
   5   2.0000     -10.234999      -278.5085
   6   2.0000     -10.193090      -277.3681
   7   2.0000     -10.180106      -277.0148
   8   2.0000     -10.179143      -276.9886
   9   2.0000     -10.178860      -276.9809
  10   2.0000     -10.177943      -276.9559
  11   2.0000     -10.177677      -276.9487
  12   2.0000     -10.177031      -276.9311
  13   2.0000     -10.176599      -276.9193
  14   2.0000     -10.168147      -276.6893
  15   2.0000     -10.154211      -276.3101
  16   2.0000     -10.153981      -276.3039
  17   2.0000     -10.153502      -276.2908
  18   2.0000      -1.240700       -33.7612
  19   2.0000      -1.067981       -29.0612
  20   2.0000      -1.011150       -27.5148
  21   2.0000      -0.901047       -24.5187
  22   2.0000      -0.876089       -23.8396
  23   2.0000      -0.829772       -22.5793
  24   2.0000      -0.777819       -21.1655
  25   2.0000      -0.753227       -20.4964
  26   2.0000      -0.744900       -20.2698
  27   2.0000      -0.742881       -20.2148
  28   2.0000      -0.699419       -19.0322
  29   2.0000      -0.628159       -17.0931
  30   2.0000      -0.626740       -17.0545
  31   2.0000      -0.613124       -16.6840
  32   2.0000      -0.610812       -16.6211
  33   2.0000      -0.585620       -15.9355
  34   2.0000      -0.550151       -14.9704
  35   2.0000      -0.543748       -14.7961
  36   2.0000      -0.542606       -14.7651
  37   2.0000      -0.531971       -14.4757
  38   2.0000      -0.529132       -14.3984
  39   2.0000      -0.507702       -13.8153
  40   2.0000      -0.502002       -13.6602
  41   2.0000      -0.473546       -12.8858
  42   2.0000      -0.454846       -12.3770
  43   2.0000      -0.447400       -12.1744
  44   2.0000      -0.443037       -12.0557
  45   2.0000      -0.437741       -11.9115
  46   2.0000      -0.424489       -11.5509
  47   2.0000      -0.419607       -11.4181
  48   2.0000      -0.412626       -11.2281
  49   2.0000      -0.402595       -10.9552
  50   2.0000      -0.398796       -10.8518
  51   2.0000      -0.393870       -10.7177
  52   2.0000      -0.393324       -10.7029
  53   2.0000      -0.377528       -10.2731
  54   2.0000      -0.374188       -10.1822
  55   2.0000      -0.373033       -10.1507
  56   2.0000      -0.351525        -9.5655
  57   2.0000      -0.344958        -9.3868
  58   2.0000      -0.339786        -9.2460
  59   2.0000      -0.331262        -9.0141
  60   2.0000      -0.322916        -8.7870
  61   2.0000      -0.319134        -8.6841
  62   2.0000      -0.317018        -8.6265
  63   2.0000      -0.308087        -8.3835
  64   2.0000      -0.306385        -8.3372
  65   2.0000      -0.303096        -8.2476
  66   2.0000      -0.263263        -7.1637
  67   2.0000      -0.261375        -7.1124
  68   2.0000      -0.227003        -6.1771
  69   0.0000      -0.080347        -2.1863
  70   0.0000      -0.023215        -0.6317
  71   0.0000      -0.017054        -0.4641
  72   0.0000       0.019108         0.5200
  73   0.0000       0.046697         1.2707

MULLIKEN ATOMIC CHARGES
-----------------------
   0 C :   -0.123006
   1 C :   -0.234583
   2 C :    0.103852
   3 C :   -0.213546
   4 C :   -0.135905
   5 C :   -0.146972
   6 H :    0.145132
   7 H :    0.150482
   8 H :    0.148672
   9 H :    0.145113
  10 C :    0.042925
  11 C :   -0.375924
  12 H :    0.142448
  13 H :    0.145016
  14 H :    0.143904
  15 N :    0.438816
  16 O :   -0.355208
  17 O :   -0.343433
  18 N :   -0.361337
  19 C :   -0.138297
  20 C :   -0.165176
  21 C :   -0.158777
  22 C :   -0.154692
  23 C :   -0.137164
  24 H :    0.109003
  25 H :    0.075701
  26 H :    0.096906
  27 H :    0.073589
  28 H :    0.097016
  29 H :    0.078050
  30 H :    0.066277
  31 H :    0.168281
  32 H :    0.194225
  33 H :    0.117340
  34 H :    0.098051
  35 H :    0.082907
  36 H :    0.144390
  37 H :    0.357068
  38 H :    0.364580
  39 O :   -0.685727
Sum of atomic charges:   -0.0000000

LOEWDIN ATOMIC CHARGES
----------------------
   0 C :   -0.135681
   1 C :   -0.112400
   2 C :   -0.143813
   3 C :   -0.100439
   4 C :   -0.136036
   5 C :   -0.134423
   6 H :    0.151265
   7 H :    0.155641
   8 H :    0.155161
   9 H :    0.150426
  10 C :   -0.203951
  11 C :   -0.265362
  12 H :    0.133255
  13 H :    0.129079
  14 H :    0.135247
  15 N :   -0.029696
  16 O :   -0.055605
  17 O :   -0.040504
  18 N :   -0.038106
  19 C :   -0.310539
  20 C :   -0.262790
  21 C :   -0.264339
  22 C :   -0.264658
  23 C :   -0.308003
  24 H :    0.126983
  25 H :    0.114827
  26 H :    0.134124
  27 H :    0.132222
  28 H :    0.134474
  29 H :    0.132758
  30 H :    0.112141
  31 H :    0.165404
  32 H :    0.159084
  33 H :    0.127345
  34 H :    0.131549
  35 H :    0.133747
  36 H :    0.151160
  37 H :    0.164803
  38 H :    0.172110
  39 O :   -0.296462

  Mayer bond orders larger than 0.100000
B(  0-C ,  1-C ) :   1.3959 B(  0-C ,  5-C ) :   1.3915 B(  0-C ,  6-H ) :   0.9772
B(  1-C ,  2-C ) :   1.3560 B(  1-C ,  7-H ) :   0.9558 B(  2-C ,  3-C ) :   1.3293
B(  2-C , 10-C ) :   0.9015 B(  3-C ,  4-C ) :   1.4334 B(  3-C ,  8-H ) :   0.9668
B(  4-C ,  5-C ) :   1.3666 B(  4-C , 36-H ) :   0.9764 B(  5-C ,  9-H ) :   0.9725
B( 10-C , 11-C ) :   0.9604 B( 10-C , 15-N ) :   0.8017 B( 10-C , 31-H ) :   0.9591
B( 11-C , 12-H ) :   0.9729 B( 11-C , 13-H ) :   0.9489 B( 11-C , 14-H ) :   0.9642
B( 15-N , 16-O ) :   1.6221 B( 15-N , 17-O ) :   1.6152 B( 16-O , 17-O ) :   0.2094
B( 18-N , 19-C ) :   0.9755 B( 18-N , 23-C ) :   0.9914 B( 18-N , 32-H ) :   0.9188
B( 19-C , 20-C ) :   0.9967 B( 19-C , 30-H ) :   0.9668 B( 19-C , 33-H ) :   0.9616
B( 20-C , 21-C ) :   0.9799 B( 20-C , 28-H ) :   0.9672 B( 20-C , 29-H ) :   0.9616
B( 21-C , 22-C ) :   0.9814 B( 21-C , 34-H ) :   0.9683 B( 21-C , 35-H ) :   0.9649
B( 22-C , 23-C ) :   0.9948 B( 22-C , 26-H ) :   0.9673 B( 22-C , 27-H ) :   0.9585
B( 23-C , 24-H ) :   0.9631 B( 23-C , 25-H ) :   0.9670 B( 37-H , 39-O ) :   0.8763
B( 38-H , 39-O ) :   0.8742

Dispersion correction           -0.072385728
FINAL SINGLE POINT ENERGY      -843.638994485413
Dispersion correction            ... done

DIPOLE MOMENT
-------------
                                X             Y             Z
Electronic contribution:    -21.02788      -1.92744     -16.27267
Nuclear contribution   :     23.16944       2.67756      17.73923
                        -----------------------------------------
Total Dipole Moment    :      2.14155       0.75012       1.46656
                        -----------------------------------------
Magnitude (a.u.)       :      2.70180
Magnitude (Debye)      :      6.86743

VIBRATIONAL FREQUENCIES
-----------------------

Scaling factor for frequencies =  1.000000000 (already applied!)

   0:         0.00 cm**-1
   1:         0.00 cm**-1
   2:         0.00 cm**-1
   3:         0.00 cm**-1
   4:         0.00 cm**-1
   5:         0.00 cm**-1
   6:      -193.77 cm**-1 ***imaginary mode***
   7:      -161.16 cm**-1 ***imaginary mode***
   8:       -30.60 cm**-1 ***imaginary mode***
   9:       -29.27 cm**-1 ***imaginary mode***
  10:       -15.64 cm**-1 ***imaginary mode***
  11:       -10.04 cm**-1 ***imaginary mode***
  12:        22.04 cm**-1
  13:        25.73 cm**-1
  14:        33.81 cm**-1
  15:        49.47 cm**-1
  16:        60.02 cm**-1
  17:        83.61 cm**-1
  18:        92.51 cm**-1
  19:       102.96 cm**-1
  20:       180.88 cm**-1
  21:       194.21 cm**-1
  22:       214.93 cm**-1
  23:       244.24 cm**-1
  24:       247.94 cm**-1
  25:       252.38 cm**-1
  26:       299.73 cm**-1
  27:       362.28 cm**-1
  28:       398.89 cm**-1
  29:       416.13 cm**-1
  30:       442.30 cm**-1
  31:       453.71 cm**-1
  32:       462.66 cm**-1
  33:       504.54 cm**-1
  34:       558.49 cm**-1
  35:       591.98 cm**-1
  36:       630.88 cm**-1
  37:       649.02 cm**-1
  38:       712.65 cm**-1
  39:       735.07 cm**-1
  40:       790.77 cm**-1
  41:       798.81 cm**-1
  42:       824.58 cm**-1
  43:       826.88 cm**-1
  44:       828.44 cm**-1
  45:       866.58 cm**-1
  46:       868.05 cm**-1
  47:       873.68 cm**-1
  48:       880.29 cm**-1
  49:       928.43 cm**-1
  50:       951.65 cm**-1
  51:       980.41 cm**-1
  52:       995.24 cm**-1
  53:      1007.77 cm**-1
  54:      1014.61 cm**-1
  55:      1026.90 cm**-1
  56:      1048.33 cm**-1
  57:      1052.24 cm**-1
  58:      1058.74 cm**-1
  59:      1072.12 cm**-1
  60:      1076.36 cm**-1
  61:      1097.73 cm**-1
  62:      1121.26 cm**-1
  63:      1140.81 cm**-1
  64:      1163.63 cm**-1
  65:      1170.38 cm**-1
  66:      1176.62 cm**-1
  67:      1181.98 cm**-1
  68:      1205.86 cm**-1
  69:      1225.27 cm**-1
  70:      1281.81 cm**-1
  71:      1289.13 cm**-1
  72:      1303.32 cm**-1
  73:      1305.14 cm**-1
  74:      1341.91 cm**-1
  75:      1347.35 cm**-1
  76:      1361.72 cm**-1
  77:      1364.19 cm**-1
  78:      1374.79 cm**-1
  79:      1379.99 cm**-1
  80:      1385.10 cm**-1
  81:      1404.84 cm**-1
  82:      1414.76 cm**-1
  83:      1421.47 cm**-1
  84:      1470.63 cm**-1
  85:      1473.67 cm**-1
  86:      1475.97 cm**-1
  87:      1486.25 cm**-1
  88:      1486.74 cm**-1
  89:      1488.53 cm**-1
  90:      1491.88 cm**-1
  91:      1498.57 cm**-1
  92:      1503.16 cm**-1
  93:      1535.50 cm**-1
  94:      1570.02 cm**-1
  95:      1575.13 cm**-1
  96:      1629.76 cm**-1
  97:      1650.97 cm**-1
  98:      2913.12 cm**-1
  99:      2920.00 cm**-1
 100:      3007.04 cm**-1
 101:      3017.05 cm**-1
 102:      3018.25 cm**-1
 103:      3053.68 cm**-1
 104:      3058.40 cm**-1
 105:      3059.11 cm**-1
 106:      3063.94 cm**-1
 107:      3066.99 cm**-1
 108:      3086.44 cm**-1
 109:      3111.49 cm**-1
 110:      3132.21 cm**-1
 111:      3147.21 cm**-1
 112:      3156.92 cm**-1
 113:      3172.44 cm**-1
 114:      3182.18 cm**-1
 115:      3190.74 cm**-1
 116:      3196.22 cm**-1
 117:      3487.99 cm**-1
 118:      3763.03 cm**-1
 119:      3855.68 cm**-1

IR SPECTRUM
-----------

 Mode   freq       eps      Int      T**2         TX        TY        TZ
       cm**-1   L/(mol*cm) km/mol    a.u.
----------------------------------------------------------------------------
 12:     22.04   0.000601    3.04  0.008511  (-0.055188  0.067438  0.030283)
 13:     25.73   0.000029    0.14  0.000347  ( 0.007651  0.012513 -0.011503)
 14:     33.81   0.000675    3.41  0.006234  (-0.061401 -0.036585  0.033541)
 15:     49.47   0.000081    0.41  0.000508  (-0.004174  0.019902  0.009719)
 16:     60.02   0.001420    7.17  0.007381  (-0.035753  0.019051  0.075761)
 17:     83.61   0.002627   13.27  0.009804  ( 0.028851 -0.087337 -0.036662)
 18:     92.51   0.001954    9.88  0.006593  (-0.019285  0.037523  0.069377)
 19:    102.96   0.001347    6.81  0.004083  (-0.006974 -0.027127  0.057430)
 20:    180.88   0.002534   12.81  0.004372  ( 0.013004 -0.062974  0.015392)
 21:    194.21   0.000272    1.38  0.000437  (-0.000856  0.018185 -0.010292)
 22:    214.93   0.000340    1.72  0.000493  ( 0.003204 -0.018945  0.011126)
 23:    244.24   0.000517    2.61  0.000661  ( 0.018291 -0.015266  0.009660)
 24:    247.94   0.000634    3.20  0.000798  (-0.008144 -0.018271 -0.019938)
 25:    252.38   0.001273    6.43  0.001574  (-0.010025  0.001873 -0.038342)
 26:    299.73   0.000388    1.96  0.000404  ( 0.004512  0.005946  0.018653)
 27:    362.28   0.000091    0.46  0.000078  (-0.000735 -0.006148  0.006299)
 28:    398.89   0.000732    3.70  0.000573  ( 0.003833  0.002173  0.023526)
 29:    416.13   0.000012    0.06  0.000009  (-0.002515 -0.001052 -0.001165)
 30:    442.30   0.001666    8.42  0.001175  (-0.029705 -0.002198 -0.016976)
 31:    453.71   0.000262    1.32  0.000180  (-0.000814  0.013245 -0.002040)
 32:    462.66   0.001110    5.61  0.000748  ( 0.013461 -0.011990  0.020579)
 33:    504.54   0.002930   14.81  0.001812  ( 0.021135 -0.027404  0.024787)
 34:    558.49   0.006711   33.91  0.003750  ( 0.061088 -0.004232 -0.000058)
 35:    591.98   0.005223   26.39  0.002753  (-0.010883 -0.015036 -0.049079)
 36:    630.88   0.001948    9.85  0.000964  (-0.020433 -0.008459 -0.021789)
 37:    649.02   0.004414   22.31  0.002122  (-0.032935 -0.012935 -0.029502)
 38:    712.65   0.009185   46.42  0.004022  ( 0.032121 -0.009654  0.053826)
 39:    735.07   0.012883   65.11  0.005469  (-0.031785 -0.002094 -0.066744)
 40:    790.77   0.001926    9.73  0.000760  ( 0.001649  0.000460  0.027515)
 41:    798.81   0.024087  121.72  0.009410  (-0.096318  0.009931  0.005821)
 42:    824.58   0.000279    1.41  0.000105  (-0.008620 -0.005219  0.001982)
 43:    826.88   0.004100   20.72  0.001547  (-0.038256  0.003727 -0.008360)
 44:    828.44   0.000202    1.02  0.000076  ( 0.002362 -0.000378  0.008398)
 45:    866.58   0.000145    0.73  0.000052  ( 0.005341  0.003250  0.003623)
 46:    868.05   0.008799   44.47  0.003163  (-0.030014 -0.022742 -0.041774)
 47:    873.68   0.003985   20.14  0.001423  (-0.036631  0.003024  0.008506)
 48:    880.29   0.000235    1.19  0.000083  (-0.004194 -0.007909  0.001753)
 49:    928.43   0.004354   22.01  0.001464  (-0.032307  0.006349  0.019482)
 50:    951.65   0.001321    6.68  0.000433  (-0.012074  0.000689 -0.016940)
 51:    980.41   0.000414    2.09  0.000132  ( 0.000642 -0.011152  0.002628)
 52:    995.24   0.000198    1.00  0.000062  (-0.006757 -0.001136 -0.003905)
 53:   1007.77   0.001306    6.60  0.000404  ( 0.018710 -0.006719  0.003012)
 54:   1014.61   0.000640    3.24  0.000197  (-0.012592  0.005805  0.002171)
 55:   1026.90   0.000245    1.24  0.000074  ( 0.007611 -0.004048 -0.000192)
 56:   1048.33   0.001912    9.66  0.000569  ( 0.020197 -0.006120 -0.011124)
 57:   1052.24   0.003260   16.48  0.000967  (-0.002513 -0.030028 -0.007674)
 58:   1058.74   0.001335    6.75  0.000394  ( 0.007035  0.017363 -0.006524)
 59:   1072.12   0.001522    7.69  0.000443  (-0.009268 -0.016042 -0.009988)
 60:   1076.36   0.006833   34.53  0.001981  ( 0.034294 -0.013193 -0.025120)
 61:   1097.73   0.004186   21.15  0.001190  (-0.027682 -0.017671  0.010552)
 62:   1121.26   0.007090   35.83  0.001973  (-0.003035 -0.043878  0.006215)
 63:   1140.81   0.000468    2.37  0.000128  ( 0.009608  0.000004 -0.005976)
 64:   1163.63   0.000641    3.24  0.000172  ( 0.002776  0.012345 -0.003452)
 65:   1170.38   0.002548   12.88  0.000679  (-0.024072  0.002080  0.009773)
 66:   1176.62   0.000049    0.25  0.000013  (-0.002164 -0.002307  0.001711)
 67:   1181.98   0.002307   11.66  0.000609  (-0.000031 -0.024569  0.002349)
 68:   1205.86   0.000086    0.43  0.000022  (-0.003690  0.001282  0.002627)
 69:   1225.27   0.003261   16.48  0.000830  (-0.005782  0.025561 -0.011987)
 70:   1281.81   0.001363    6.89  0.000332  (-0.004827  0.005025  0.016834)
 71:   1289.13   0.000215    1.09  0.000052  (-0.000161  0.006882 -0.002179)
 72:   1303.32   0.000219    1.11  0.000053  ( 0.001092 -0.006229 -0.003544)
 73:   1305.14   0.005531   27.95  0.001323  ( 0.035803  0.001866 -0.006097)
 74:   1341.91   0.008391   42.40  0.001951  ( 0.009490  0.041614 -0.011381)
 75:   1347.35   0.009536   48.19  0.002209  ( 0.039503  0.013331 -0.021692)
 76:   1361.72   0.001160    5.86  0.000266  (-0.003479 -0.009232  0.012979)
 77:   1364.19   0.000696    3.52  0.000159  ( 0.000036 -0.012604  0.000545)
 78:   1374.79   0.000067    0.34  0.000015  ( 0.001013 -0.003488 -0.001413)
 79:   1379.99   0.000150    0.76  0.000034  ( 0.001343 -0.000532 -0.005634)
 80:   1385.10   0.008941   45.18  0.002014  ( 0.019349  0.016244  0.037095)
 81:   1404.84   0.009382   47.41  0.002084  ( 0.008170  0.031926  0.031591)
 82:   1414.76   0.000814    4.11  0.000180  ( 0.000514 -0.005276 -0.012304)
 83:   1421.47   0.027358  138.26  0.006006  (-0.002230 -0.022288 -0.074192)
 84:   1470.63   0.001069    5.40  0.000227  (-0.002038 -0.014000  0.005164)
 85:   1473.67   0.002471   12.49  0.000523  ( 0.021975 -0.001489 -0.006169)
 86:   1475.97   0.002022   10.22  0.000428  (-0.009124  0.005754  0.017641)
 87:   1486.25   0.002726   13.78  0.000572  (-0.018330 -0.006579 -0.013896)
 88:   1486.74   0.000693    3.50  0.000145  ( 0.008233  0.008423  0.002600)
 89:   1488.53   0.000429    2.17  0.000090  ( 0.005792 -0.005055  0.005550)
 90:   1491.88   0.001990   10.06  0.000416  ( 0.015574  0.009073 -0.009559)
 91:   1498.57   0.000323    1.63  0.000067  (-0.000069 -0.004496  0.006860)
 92:   1503.16   0.001464    7.40  0.000304  (-0.005600  0.016500  0.000564)
 93:   1535.50   0.003311   16.73  0.000673  ( 0.015125 -0.019882 -0.006988)
 94:   1570.02   0.118679  599.76  0.023589  (-0.111952 -0.058617  0.087292)
 95:   1575.13   0.023566  119.09  0.004669  ( 0.051931  0.008048  0.043672)
 96:   1629.76   0.000135    0.68  0.000026  ( 0.004832  0.000615 -0.001461)
 97:   1650.97   0.000062    0.31  0.000012  (-0.000579 -0.003326  0.000524)
 98:   2913.12   0.025406  128.39  0.002722  (-0.030950 -0.017061  0.038375)
 99:   2920.00   0.048200  243.58  0.005151  (-0.039769  0.031416  0.050820)
100:   3007.04   0.008985   45.41  0.000932  (-0.030387  0.002923  0.000718)
101:   3017.05   0.006937   35.06  0.000718  (-0.002784 -0.026448  0.003208)
102:   3018.25   0.014489   73.22  0.001498  (-0.022056  0.004602  0.031470)
103:   3053.68   0.021219  107.23  0.002168  (-0.020093  0.005017 -0.041708)
104:   3058.40   0.002251   11.37  0.000230  (-0.001526  0.013412 -0.006887)
105:   3059.11   0.019787   99.99  0.002018  ( 0.017060 -0.040808 -0.007882)
106:   3063.94   0.012996   65.68  0.001324  ( 0.005678  0.035006 -0.008122)
107:   3066.99   0.026651  134.68  0.002712  ( 0.044016 -0.007431 -0.026815)
108:   3086.44   0.014400   72.77  0.001456  ( 0.025170  0.027936 -0.006483)
109:   3111.49   0.004916   24.84  0.000493  ( 0.021281 -0.002335 -0.005892)
110:   3132.21   0.002612   13.20  0.000260  ( 0.001316 -0.014066 -0.007788)
111:   3147.21   0.001363    6.89  0.000135  (-0.007525 -0.005338 -0.007076)
112:   3156.92   0.000525    2.65  0.000052  (-0.006250  0.002071  0.002916)
113:   3172.44   0.000050    0.25  0.000005  (-0.000942 -0.001729  0.001006)
114:   3182.18   0.002356   11.91  0.000231  ( 0.012330 -0.005861 -0.006686)
115:   3190.74   0.004042   20.43  0.000395  (-0.009868 -0.016590  0.004770)
116:   3196.22   0.001408    7.11  0.000137  (-0.007618  0.007490  0.004828)
117:   3487.99   0.005800   29.31  0.000519  (-0.012811 -0.000866 -0.018816)
118:   3763.03   0.006221   31.44  0.000516  (-0.019585 -0.005078 -0.010321)
119:   3855.68   0.027094  136.92  0.002193  (-0.001821 -0.039503  0.025080)

--------------------------
THERMOCHEMISTRY AT 298.15K
--------------------------

Temperature         ... 298.15 K
Pressure            ... 1.00 atm
Total Mass          ... 254.33 AMU

Throughout the following assumptions are being made:
  (1) The electronic state is orbitally nondegenerate
  (2) There are no thermally accessible electronically excited states
  (3) Hindered rotations indicated by low frequency modes are not
      treated as such but are treated as vibrations and this may
      cause some error
  (4) All equations used are the standard statistical mechanics
      equations for an ideal gas
  (5) All vibrations are strictly harmonic

freq.      22.04  E(vib)   ...       0.56
freq.      25.73  E(vib)   ...       0.56
freq.      33.81  E(vib)   ...       0.55
freq.      49.47  E(vib)   ...       0.52
freq.      60.02  E(vib)   ...       0.51
freq.      83.61  E(vib)   ...       0.48
freq.      92.51  E(vib)   ...       0.47
freq.     102.96  E(vib)   ...       0.46
freq.     180.88  E(vib)   ...       0.37
freq.     194.21  E(vib)   ...       0.36
freq.     214.93  E(vib)   ...       0.34
freq.     244.24  E(vib)   ...       0.31
freq.     247.94  E(vib)   ...       0.31
freq.     252.38  E(vib)   ...       0.30
freq.     299.73  E(vib)   ...       0.26
freq.     362.28  E(vib)   ...       0.22
freq.     398.89  E(vib)   ...       0.19
freq.     416.13  E(vib)   ...       0.18
freq.     442.30  E(vib)   ...       0.17
freq.     453.71  E(vib)   ...       0.16
freq.     462.66  E(vib)   ...       0.16
freq.     504.54  E(vib)   ...       0.14
freq.     558.49  E(vib)   ...       0.12
freq.     591.98  E(vib)   ...       0.10
freq.     630.88  E(vib)   ...       0.09
freq.     649.02  E(vib)   ...       0.08
freq.     712.65  E(vib)   ...       0.07
freq.     735.07  E(vib)   ...       0.06
freq.     790.77  E(vib)   ...       0.05
freq.     798.81  E(vib)   ...       0.05
freq.     824.58  E(vib)   ...       0.04
freq.     826.88  E(vib)   ...       0.04
freq.     828.44  E(vib)   ...       0.04
freq.     866.58  E(vib)   ...       0.04
freq.     868.05  E(vib)   ...       0.04
freq.     873.68  E(vib)   ...       0.04
freq.     880.29  E(vib)   ...       0.04
freq.     928.43  E(vib)   ...       0.03
freq.     951.65  E(vib)   ...       0.03
freq.     980.41  E(vib)   ...       0.02
freq.     995.24  E(vib)   ...       0.02
freq.    1007.77  E(vib)   ...       0.02
freq.    1014.61  E(vib)   ...       0.02
freq.    1026.90  E(vib)   ...       0.02
freq.    1048.33  E(vib)   ...       0.02
freq.    1052.24  E(vib)   ...       0.02
freq.    1058.74  E(vib)   ...       0.02
freq.    1072.12  E(vib)   ...       0.02
freq.    1076.36  E(vib)   ...       0.02
freq.    1097.73  E(vib)   ...       0.02
freq.    1121.26  E(vib)   ...       0.01
freq.    1140.81  E(vib)   ...       0.01
freq.    1163.63  E(vib)   ...       0.01
freq.    1170.38  E(vib)   ...       0.01
freq.    1176.62  E(vib)   ...       0.01
freq.    1181.98  E(vib)   ...       0.01
freq.    1205.86  E(vib)   ...       0.01
freq.    1225.27  E(vib)   ...       0.01
freq.    1281.81  E(vib)   ...       0.01
freq.    1289.13  E(vib)   ...       0.01
freq.    1303.32  E(vib)   ...       0.01
freq.    1305.14  E(vib)   ...       0.01
freq.    1341.91  E(vib)   ...       0.01
freq.    1347.35  E(vib)   ...       0.01
freq.    1361.72  E(vib)   ...       0.01
freq.    1364.19  E(vib)   ...       0.01
freq.    1374.79  E(vib)   ...       0.01
freq.    1379.99  E(vib)   ...       0.01
freq.    1385.10  E(vib)   ...       0.00
freq.    1404.84  E(vib)   ...       0.00
freq.    1414.76  E(vib)   ...       0.00
freq.    1421.47  E(vib)   ...       0.00
freq.    1470.63  E(vib)   ...       0.00
freq.    1473.67  E(vib)   ...       0.00
freq.    1475.97  E(vib)   ...       0.00
freq.    1486.25  E(vib)   ...       0.00
freq.    1486.74  E(vib)   ...       0.00
freq.    1488.53  E(vib)   ...       0.00
freq.    1491.88  E(vib)   ...       0.00
freq.    1498.57  E(vib)   ...       0.00
freq.    1503.16  E(vib)   ...       0.00
freq.    1535.50  E(vib)   ...       0.00
freq.    1570.02  E(vib)   ...       0.00
freq.    1575.13  E(vib)   ...       0.00
freq.    1629.76  E(vib)   ...       0.00
freq.    1650.97  E(vib)   ...       0.00
freq.    2913.12  E(vib)   ...       0.00
freq.    2920.00  E(vib)   ...       0.00
freq.    3007.04  E(vib)   ...       0.00
freq.    3017.05  E(vib)   ...       0.00
freq.    3018.25  E(vib)   ...       0.00
freq.    3053.68  E(vib)   ...       0.00
freq.    3058.40  E(vib)   ...       0.00
freq.    3059.11  E(vib)   ...       0.00
freq.    3063.94  E(vib)   ...       0.00
freq.    3066.99  E(vib)   ...       0.00
freq.    3086.44  E(vib)   ...       0.00
freq.    3111.49  E(vib)   ...       0.00
freq.    3132.21  E(vib)   ...       0.00
freq.    3147.21  E(vib)   ...       0.00
freq.    3156.92  E(vib)   ...       0.00
freq.    3172.44  E(vib)   ...       0.00
freq.    3182.18  E(vib)   ...       0.00
freq.    3190.74  E(vib)   ...       0.00
freq.    3196.22  E(vib)   ...       0.00
freq.    3487.99  E(vib)   ...       0.00
freq.    3763.03  E(vib)   ...       0.00
freq.    3855.68  E(vib)   ...       0.00

------------
INNER ENERGY
------------

The inner energy is: U= E(el) + E(ZPE) + E(vib) + E(rot) + E(trans)
    E(el)   - is the total energy from the electronic structure calculation
              = E(kin-el) + E(nuc-el) + E(el-el) + E(nuc-nuc)
    E(ZPE)  - the the zero temperature vibrational energy from the frequency calculation
    E(vib)  - the the finite temperature correction to E(ZPE) due to population
              of excited vibrational states
    E(rot)  - is the rotational thermal energy
    E(trans)- is the translational thermal energy

Summary of contributions to the inner energy U:
Electronic energy                ...   -843.63899448 Eh
Zero point energy                ...      0.34001635 Eh     213.36 kcal/mol
Thermal vibrational correction   ...      0.01432279 Eh       8.99 kcal/mol
Thermal rotational correction    ...      0.00141627 Eh       0.89 kcal/mol
Thermal translational correction ...      0.00141627 Eh       0.89 kcal/mol
-----------------------------------------------------------------------
Total thermal energy                   -843.28182279 Eh

Summary of corrections to the electronic energy:
(perhaps to be used in another calculation)
Total thermal correction                  0.01715534 Eh      10.77 kcal/mol
Non-thermal (ZPE) correction              0.34001635 Eh     213.36 kcal/mol
-----------------------------------------------------------------------
Total correction                          0.35717169 Eh     224.13 kcal/mol

--------
ENTHALPY
--------

Rotational constants in cm-1:     0.017699     0.007326     0.006232

                             ****ORCA TERMINATED NORMALLY****
TOTAL RUN TIME: 0 days 1 hours 10 minutes 16 seconds 186 msec
