                         Program Version 5.0.4 -  RELEASE  -
|  1> !  NUMFREQ B3LYP def2-TZVP CPCM D3
|  2> %pal nprocs 102 end
|  3> %cpcm epsilon 78.4 end
|  4> *xyz 0 1
|  5> C   2.00892575581721 2.65436626211559 2.09225576924066
|  6> C   2.10300469062848 1.26803429675288 2.08835098509058
|  7> C   1.01758769210209 0.48936481698598 1.69591861901639
|  8> C   -0.16762484785877 1.10567845407524 1.29657748062424
|  9> C   -0.240692709486 2.49023414719075 1.30205754930525
| 10> C   0.83240573061535 3.27904260394721 1.69715461441798
| 11> H   2.85463217538137 3.25388483659921 2.40291691865058
| 12> H   3.01762812559269 0.78248608952555 2.39462586949581
| 13> H   -1.02148034738032 0.5231874723446 0.9809084888955
| 14> Cl   -1.72873275108278 3.26473616660211 0.79883303146672
| 15> H   0.74747694171831 4.35681466575055 1.69575915885527
| 16> C   1.15037008230914 -1.01721893924532 1.70665104541796
| 17> C   0.0139702552437 -1.76351233082884 2.37605969845021
| 18> H   0.17466695684318 -2.83985356899741 2.31494151860467
| 19> H   -0.95077525138646 -1.52324606291415 1.93480982474692
| 20> H   -0.0004657000202 -1.47382488910968 3.4272144333917
| 21> N   1.30037587186095 -1.4634908933592 0.24543346529435
| 22> O   2.42734917782411 -1.45311018046194 -0.22319572122328
| 23> O   0.30048621790522 -1.77182540603444 -0.37916030099691
| 24> N   5.90416079251397 -0.30023493398637 3.27156960749838
| 25> C   6.54480668285055 -1.41637220037245 2.55513206638856
| 26> C   7.9284062142414 -1.06549221635483 2.00732225394248
| 27> C   7.8686643773436 0.19364489091422 1.13922859056607
| 28> C   7.20404610198946 1.34433537252917 1.89898111506982
| 29> C   5.84227648847716 0.91580290499433 2.44537426131492
| 30> H   2.10470680749329 -1.28479893547553 2.15334367205761
| 31> H   6.60003521139757 -2.26916514669655 3.2343156325812
| 32> H   5.88071104817835 -1.69772755681664 1.73133568489479
| 33> H   8.32331353795875 -1.91057973710782 1.43684582796089
| 34> H   8.60984496298725 -0.89786371958023 2.84874135417113
| 35> H   8.87107404963362 0.48013231657727 0.81221573616428
| 36> H   7.28829855856157 -0.02157680548794 0.23480326081094
| 37> H   7.0809926349752 2.21634938026683 1.25081574776634
| 38> H   7.843311577087 1.65186368099062 2.7340793288168
| 39> H   5.39052060382807 1.71176653143712 3.04037509802014
| 40> H   5.16609165262507 0.70849753684596 1.61039485023631
| 41> H   6.44826546444569 -0.09820508412405 4.10683027426139
| 42> H   2.93353868919256 -0.63766000980931 4.48632111400579
| 43> H   4.33399165651794 -0.8941531719007 3.84321808739948
| 44> O   3.48993056107444 -1.34379469778182 4.13766914732795
| 45> *
| 46>
| 47>                          ****END OF INPUT****

CARTESIAN COORDINATES (ANGSTROEM)
---------------------------------
  C      2.008926    2.654366    2.092256
  C      2.103005    1.268034    2.088351
  C      1.017588    0.489365    1.695919
  C     -0.167625    1.105678    1.296577
  C     -0.240693    2.490234    1.302058
  C      0.832406    3.279043    1.697155
  H      2.854632    3.253885    2.402917
  H      3.017628    0.782486    2.394626
  H     -1.021480    0.523187    0.980908
  Cl    -1.728733    3.264736    0.798833
  H      0.747477    4.356815    1.695759
  C      1.150370   -1.017219    1.706651
  C      0.013970   -1.763512    2.376060
  H      0.174667   -2.839854    2.314942
  H     -0.950775   -1.523246    1.934810
  H     -0.000466   -1.473825    3.427214
  N      1.300376   -1.463491    0.245433
  O      2.427349   -1.453110   -0.223196
  O      0.300486   -1.771825   -0.379160
  N      5.904161   -0.300235    3.271570
  C      6.544807   -1.416372    2.555132
  C      7.928406   -1.065492    2.007322
  C      7.868664    0.193645    1.139229
  C      7.204046    1.344335    1.898981
  C      5.842276    0.915803    2.445374
  H      2.104707   -1.284799    2.153344
  H      6.600035   -2.269165    3.234316
  H      5.880711   -1.697728    1.731336
  H      8.323314   -1.910580    1.436846
  H      8.609845   -0.897864    2.848741
  H      8.871074    0.480132    0.812216
  H      7.288299   -0.021577    0.234803
  H      7.080993    2.216349    1.250816
  H      7.843312    1.651864    2.734079
  H      5.390521    1.711767    3.040375
  H      5.166092    0.708498    1.610395
  H      6.448265   -0.098205    4.106830
  H      2.933539   -0.637660    4.486321
  H      4.333992   -0.894153    3.843218
  O      3.489931   -1.343795    4.137669

 Total Charge           Charge          ....    0
 Multiplicity           Mult            ....    1
 Number of Electrons    NEL             ....  154
 Basis Dimension        Dim             ....  721

ORBITAL ENERGIES
----------------

  NO   OCC          E(Eh)            E(eV)
   0   2.0000    -101.530504     -2762.7855
   1   2.0000     -19.173033      -521.7248
   2   2.0000     -19.171395      -521.6802
   3   2.0000     -19.098084      -519.6853
   4   2.0000     -14.553574      -396.0229
   5   2.0000     -14.306804      -389.3079
   6   2.0000     -10.241783      -278.6931
   7   2.0000     -10.236632      -278.5529
   8   2.0000     -10.202778      -277.6317
   9   2.0000     -10.191301      -277.3194
  10   2.0000     -10.189425      -277.2684
  11   2.0000     -10.186384      -277.1856
  12   2.0000     -10.184607      -277.1372
  13   2.0000     -10.184592      -277.1369
  14   2.0000     -10.183537      -277.1081
  15   2.0000     -10.170616      -276.7565
  16   2.0000     -10.156242      -276.3654
  17   2.0000     -10.155604      -276.3480
  18   2.0000     -10.155558      -276.3468
  19   2.0000      -9.462644      -257.4916
  20   2.0000      -7.223976      -196.5744
  21   2.0000      -7.215833      -196.3528
  22   2.0000      -7.215498      -196.3437
  23   2.0000      -1.242418       -33.8079
  24   2.0000      -1.069650       -29.1067
  25   2.0000      -0.979248       -26.6467
  26   2.0000      -0.911668       -24.8078
  27   2.0000      -0.901925       -24.5426
  28   2.0000      -0.861711       -23.4483
  29   2.0000      -0.825195       -22.4547
  30   2.0000      -0.778816       -21.1927
  31   2.0000      -0.757747       -20.6194
  32   2.0000      -0.746710       -20.3190
  33   2.0000      -0.741224       -20.1697
  34   2.0000      -0.702493       -19.1158
  35   2.0000      -0.639139       -17.3919
  36   2.0000      -0.632382       -17.2080
  37   2.0000      -0.617385       -16.7999
  38   2.0000      -0.612947       -16.6791
  39   2.0000      -0.589270       -16.0349
  40   2.0000      -0.565866       -15.3980
  41   2.0000      -0.549818       -14.9613
  42   2.0000      -0.546739       -14.8775
  43   2.0000      -0.530464       -14.4347
  44   2.0000      -0.515393       -14.0246
  45   2.0000      -0.506957       -13.7950
  46   2.0000      -0.486999       -13.2519
  47   2.0000      -0.486322       -13.2335
  48   2.0000      -0.462903       -12.5962
  49   2.0000      -0.450299       -12.2533
  50   2.0000      -0.447107       -12.1664
  51   2.0000      -0.446493       -12.1497
  52   2.0000      -0.435773       -11.8580
  53   2.0000      -0.434758       -11.8304
  54   2.0000      -0.416072       -11.3219
  55   2.0000      -0.410338       -11.1659
  56   2.0000      -0.400579       -10.9003
  57   2.0000      -0.399936       -10.8828
  58   2.0000      -0.385376       -10.4866
  59   2.0000      -0.378234       -10.2923
  60   2.0000      -0.376756       -10.2520
  61   2.0000      -0.367243        -9.9932
  62   2.0000      -0.365920        -9.9572
  63   2.0000      -0.362539        -9.8652
  64   2.0000      -0.344484        -9.3739
  65   2.0000      -0.342627        -9.3234
  66   2.0000      -0.341987        -9.3059
  67   2.0000      -0.332666        -9.0523
  68   2.0000      -0.321968        -8.7612
  69   2.0000      -0.318454        -8.6656
  70   2.0000      -0.317887        -8.6501
  71   2.0000      -0.311114        -8.4659
  72   2.0000      -0.310799        -8.4573
  73   2.0000      -0.294097        -8.0028
  74   2.0000      -0.270860        -7.3705
  75   2.0000      -0.256481        -6.9792
  76   2.0000      -0.235318        -6.4033
  77   0.0000      -0.082465        -2.2440
  78   0.0000      -0.031688        -0.8623
  79   0.0000      -0.026039        -0.7085
  80   0.0000       0.020804         0.5661
  81   0.0000       0.030180         0.8212

MULLIKEN ATOMIC CHARGES
-----------------------
   0 C :   -0.185869
   1 C :   -0.183033
   2 C :    0.104991
   3 C :   -0.257141
   4 C :    0.199511
   5 C :   -0.184963
   6 H :    0.147836
   7 H :    0.171657
   8 H :    0.151564
   9 Cl:   -0.133595
  10 H :    0.151751
  11 C :    0.025715
  12 C :   -0.358071
  13 H :    0.144334
  14 H :    0.140621
  15 H :    0.139049
  16 N :    0.435324
  17 O :   -0.352622
  18 O :   -0.342431
  19 N :   -0.392881
  20 C :   -0.123744
  21 C :   -0.174298
  22 C :   -0.161371
  23 C :   -0.174796
  24 C :   -0.146587
  25 H :    0.138797
  26 H :    0.119555
  27 H :    0.103949
  28 H :    0.099509
  29 H :    0.089646
  30 H :    0.101094
  31 H :    0.088857
  32 H :    0.100262
  33 H :    0.091639
  34 H :    0.126686
  35 H :    0.111080
  36 H :    0.218422
  37 H :    0.339981
  38 H :    0.346732
  39 O :   -0.717160
Sum of atomic charges:   -0.0000000

LOEWDIN ATOMIC CHARGES
----------------------
   0 C :   -0.121544
   1 C :   -0.101325
   2 C :   -0.128899
   3 C :   -0.102779
   4 C :   -0.411662
   5 C :   -0.133791
   6 H :    0.155486
   7 H :    0.152863
   8 H :    0.159198
   9 Cl:    0.363770
  10 H :    0.155317
  11 C :   -0.207179
  12 C :   -0.261594
  13 H :    0.132566
  14 H :    0.128959
  15 H :    0.140153
  16 N :   -0.029290
  17 O :   -0.051843
  18 O :   -0.039068
  19 N :    0.000606
  20 C :   -0.298565
  21 C :   -0.266701
  22 C :   -0.262266
  23 C :   -0.265059
  24 C :   -0.304912
  25 H :    0.162847
  26 H :    0.130775
  27 H :    0.132339
  28 H :    0.135182
  29 H :    0.134503
  30 H :    0.132559
  31 H :    0.135372
  32 H :    0.135436
  33 H :    0.134600
  34 H :    0.131451
  35 H :    0.132847
  36 H :    0.176939
  37 H :    0.153922
  38 H :    0.131774
  39 O :   -0.362987

  Mayer bond orders larger than 0.100000
B(  0-C ,  1-C ) :   1.4238 B(  0-C ,  5-C ) :   1.3701 B(  0-C ,  6-H ) :   0.9827
B(  1-C ,  2-C ) :   1.3680 B(  1-C ,  7-H ) :   0.9117 B(  2-C ,  3-C ) :   1.3299
B(  2-C , 11-C ) :   0.8783 B(  3-C ,  4-C ) :   1.3783 B(  3-C ,  8-H ) :   0.9692
B(  4-C ,  5-C ) :   1.3340 B(  4-C ,  9-Cl) :   0.9265 B(  5-C , 10-H ) :   0.9764
B(  7-H , 39-O ) :   0.1004 B( 11-C , 12-C ) :   0.9699 B( 11-C , 16-N ) :   0.8050
B( 11-C , 25-H ) :   0.9522 B( 12-C , 13-H ) :   0.9712 B( 12-C , 14-H ) :   0.9515
B( 12-C , 15-H ) :   0.9641 B( 16-N , 17-O ) :   1.6160 B( 16-N , 18-O ) :   1.6164
B( 17-O , 18-O ) :   0.2106 B( 19-N , 20-C ) :   0.9512 B( 19-N , 24-C ) :   0.9428
B( 19-N , 36-H ) :   0.9120 B( 19-N , 38-H ) :   0.1735 B( 20-C , 21-C ) :   0.9903
B( 20-C , 26-H ) :   0.9673 B( 20-C , 27-H ) :   0.9684 B( 21-C , 22-C ) :   0.9738
B( 21-C , 28-H ) :   0.9637 B( 21-C , 29-H ) :   0.9623 B( 22-C , 23-C ) :   0.9711
B( 22-C , 30-H ) :   0.9692 B( 22-C , 31-H ) :   0.9660 B( 23-C , 24-C ) :   0.9911
B( 23-C , 32-H ) :   0.9652 B( 23-C , 33-H ) :   0.9659 B( 24-C , 34-H ) :   0.9649
B( 24-C , 35-H ) :   0.9715 B( 37-H , 39-O ) :   0.8890 B( 38-H , 39-O ) :   0.7714

Dispersion correction           -0.075225089
FINAL SINGLE POINT ENERGY     -1303.215765379154
Dispersion correction            ... done

DIPOLE MOMENT
-------------
                                X             Y             Z
Electronic contribution:    -39.61321      13.44646     -12.55444
Nuclear contribution   :     41.46439     -11.97791      14.36906
                        -----------------------------------------
Total Dipole Moment    :      1.85117       1.46855       1.81461
                        -----------------------------------------
Magnitude (a.u.)       :      2.97932
Magnitude (Debye)      :      7.57282

VIBRATIONAL FREQUENCIES
-----------------------

Scaling factor for frequencies =  1.000000000 (already applied!)

   0:         0.00 cm**-1
   1:         0.00 cm**-1
   2:         0.00 cm**-1
   3:         0.00 cm**-1
   4:         0.00 cm**-1
   5:         0.00 cm**-1
   6:       -10.40 cm**-1 ***imaginary mode***
   7:         8.86 cm**-1
   8:        18.68 cm**-1
   9:        34.24 cm**-1
  10:        34.98 cm**-1
  11:        44.35 cm**-1
  12:        46.53 cm**-1
  13:        53.47 cm**-1
  14:        61.15 cm**-1
  15:        81.07 cm**-1
  16:        89.73 cm**-1
  17:       150.50 cm**-1
  18:       182.30 cm**-1
  19:       193.58 cm**-1
  20:       229.75 cm**-1
  21:       240.66 cm**-1
  22:       248.02 cm**-1
  23:       249.55 cm**-1
  24:       265.50 cm**-1
  25:       297.49 cm**-1
  26:       311.51 cm**-1
  27:       382.68 cm**-1
  28:       404.10 cm**-1
  29:       414.51 cm**-1
  30:       452.05 cm**-1
  31:       454.60 cm**-1
  32:       464.45 cm**-1
  33:       471.13 cm**-1
  34:       515.28 cm**-1
  35:       549.00 cm**-1
  36:       576.28 cm**-1
  37:       603.18 cm**-1
  38:       658.23 cm**-1
  39:       696.77 cm**-1
  40:       710.43 cm**-1
  41:       774.98 cm**-1
  42:       800.94 cm**-1
  43:       817.14 cm**-1
  44:       818.01 cm**-1
  45:       825.16 cm**-1
  46:       855.45 cm**-1
  47:       866.82 cm**-1
  48:       876.66 cm**-1
  49:       880.80 cm**-1
  50:       900.03 cm**-1
  51:       917.15 cm**-1
  52:       936.00 cm**-1
  53:       957.66 cm**-1
  54:       966.97 cm**-1
  55:      1003.10 cm**-1
  56:      1020.54 cm**-1
  57:      1021.73 cm**-1
  58:      1023.15 cm**-1
  59:      1053.99 cm**-1
  60:      1059.45 cm**-1
  61:      1081.15 cm**-1
  62:      1101.40 cm**-1
  63:      1104.41 cm**-1
  64:      1104.87 cm**-1
  65:      1126.73 cm**-1
  66:      1147.26 cm**-1
  67:      1189.49 cm**-1
  68:      1199.66 cm**-1
  69:      1206.47 cm**-1
  70:      1225.53 cm**-1
  71:      1282.34 cm**-1
  72:      1288.25 cm**-1
  73:      1297.55 cm**-1
  74:      1333.36 cm**-1
  75:      1335.87 cm**-1
  76:      1344.30 cm**-1
  77:      1356.97 cm**-1
  78:      1369.74 cm**-1
  79:      1373.07 cm**-1
  80:      1378.42 cm**-1
  81:      1381.12 cm**-1
  82:      1398.39 cm**-1
  83:      1400.66 cm**-1
  84:      1421.56 cm**-1
  85:      1462.11 cm**-1
  86:      1470.19 cm**-1
  87:      1472.94 cm**-1
  88:      1478.12 cm**-1
  89:      1479.39 cm**-1
  90:      1484.69 cm**-1
  91:      1484.96 cm**-1
  92:      1491.51 cm**-1
  93:      1497.22 cm**-1
  94:      1510.70 cm**-1
  95:      1567.22 cm**-1
  96:      1612.54 cm**-1
  97:      1634.35 cm**-1
  98:      1648.10 cm**-1
  99:      3005.36 cm**-1
 100:      3010.09 cm**-1
 101:      3012.19 cm**-1
 102:      3017.88 cm**-1
 103:      3023.51 cm**-1
 104:      3050.60 cm**-1
 105:      3054.12 cm**-1
 106:      3056.05 cm**-1
 107:      3058.92 cm**-1
 108:      3065.15 cm**-1
 109:      3076.67 cm**-1
 110:      3079.61 cm**-1
 111:      3119.03 cm**-1
 112:      3120.86 cm**-1
 113:      3142.57 cm**-1
 114:      3186.44 cm**-1
 115:      3204.73 cm**-1
 116:      3206.33 cm**-1
 117:      3223.28 cm**-1
 118:      3464.77 cm**-1
 119:      3811.83 cm**-1

IR SPECTRUM
-----------

 Mode   freq       eps      Int      T**2         TX        TY        TZ
       cm**-1   L/(mol*cm) km/mol    a.u.
----------------------------------------------------------------------------
  7:      8.86   0.000887    4.48  0.031231  ( 0.009937 -0.031968 -0.173524)
  8:     18.68   0.000537    2.71  0.008966  (-0.075440 -0.020253 -0.053519)
  9:     34.24   0.000092    0.46  0.000834  ( 0.021395  0.013646 -0.013785)
 10:     34.98   0.000324    1.64  0.002888  ( 0.053642 -0.001451  0.002897)
 11:     44.35   0.000225    1.14  0.001586  ( 0.008774  0.011418 -0.037136)
 12:     46.53   0.000413    2.09  0.002772  (-0.014060 -0.023880 -0.044762)
 13:     53.47   0.000486    2.46  0.002835  (-0.009553 -0.029859  0.043042)
 14:     61.15   0.001976    9.98  0.010083  ( 0.000179 -0.002606  0.100381)
 15:     81.07   0.003594   18.16  0.013832  ( 0.078611 -0.002974  0.087429)
 16:     89.73   0.003555   17.97  0.012364  (-0.070040  0.061638 -0.060488)
 17:    150.50   0.000066    0.33  0.000137  ( 0.006804 -0.001371 -0.009427)
 18:    182.30   0.001934    9.77  0.003311  ( 0.048957  0.011359 -0.028016)
 19:    193.58   0.004660   23.55  0.007512  ( 0.027265 -0.031627  0.075951)
 20:    229.75   0.001120    5.66  0.001521  (-0.025880 -0.017348 -0.023460)
 21:    240.66   0.019401   98.05  0.025158  (-0.070918  0.019475 -0.140532)
 22:    248.02   0.011419   57.71  0.014367  (-0.047208  0.022193 -0.107917)
 23:    249.55   0.008878   44.87  0.011103  ( 0.041462 -0.032550  0.091236)
 24:    265.50   0.000498    2.52  0.000585  (-0.021175 -0.010384  0.005398)
 25:    297.49   0.000299    1.51  0.000314  ( 0.012110 -0.006127 -0.011397)
 26:    311.51   0.000170    0.86  0.000170  (-0.000418 -0.007749 -0.010495)
 27:    382.68   0.000233    1.18  0.000190  (-0.009904 -0.001336  0.009482)
 28:    404.10   0.000271    1.37  0.000209  ( 0.007749  0.007162  0.009881)
 29:    414.51   0.002774   14.02  0.002088  (-0.033246  0.025944 -0.017602)
 30:    452.05   0.000618    3.13  0.000427  (-0.002266 -0.006344  0.019533)
 31:    454.60   0.001373    6.94  0.000943  ( 0.029184  0.008590  0.004146)
 32:    464.45   0.000516    2.61  0.000347  ( 0.011991  0.013982 -0.002731)
 33:    471.13   0.003319   16.77  0.002198  (-0.010176 -0.013830  0.043629)
 34:    515.28   0.026298  132.90  0.015926  ( 0.111335  0.018404 -0.056497)
 35:    549.00   0.002331   11.78  0.001325  (-0.015644  0.027038  0.018689)
 36:    576.28   0.000130    0.66  0.000071  ( 0.006856 -0.001422  0.004640)
 37:    603.18   0.001394    7.04  0.000721  (-0.021082  0.008952  0.014016)
 38:    658.23   0.003203   16.19  0.001519  (-0.019218 -0.002084 -0.033836)
 39:    696.77   0.003920   19.81  0.001756  (-0.024196  0.034152 -0.001998)
 40:    710.43   0.008578   43.35  0.003768  ( 0.030391 -0.006145 -0.052978)
 41:    774.98   0.009914   50.10  0.003992  ( 0.005538 -0.011408  0.061897)
 42:    800.94   0.013872   70.10  0.005405  ( 0.069340  0.008831 -0.022774)
 43:    817.14   0.004448   22.48  0.001699  (-0.032716  0.008756  0.023491)
 44:    818.01   0.001019    5.15  0.000389  (-0.011315 -0.001491  0.016073)
 45:    825.16   0.002634   13.31  0.000996  ( 0.031384  0.002712 -0.001978)
 46:    855.45   0.008005   40.46  0.002920  ( 0.042945 -0.023746  0.022632)
 47:    866.82   0.010107   51.08  0.003639  (-0.054565 -0.010795  0.023340)
 48:    876.66   0.007809   39.46  0.002780  ( 0.015784 -0.028200 -0.041659)
 49:    880.80   0.002067   10.45  0.000732  ( 0.002977  0.010483 -0.024771)
 50:    900.03   0.016148   81.61  0.005599  ( 0.010643 -0.009278  0.073483)
 51:    917.15   0.004295   21.71  0.001461  (-0.012672 -0.000874  0.036057)
 52:    936.00   0.000429    2.17  0.000143  (-0.011045  0.001416  0.004382)
 53:    957.66   0.002299   11.62  0.000749  ( 0.013630 -0.023417 -0.003864)
 54:    966.97   0.030752  155.41  0.009924  ( 0.033258  0.019063 -0.091950)
 55:   1003.10   0.000094    0.47  0.000029  (-0.003673 -0.003292  0.002199)
 56:   1020.54   0.003812   19.26  0.001166  (-0.033372 -0.006442  0.003215)
 57:   1021.73   0.000632    3.19  0.000193  (-0.003592  0.001055  0.013379)
 58:   1023.15   0.000294    1.49  0.000090  (-0.003678  0.003883 -0.007823)
 59:   1053.99   0.001974    9.98  0.000584  ( 0.021912  0.009618 -0.003428)
 60:   1059.45   0.001934    9.77  0.000570  (-0.008169  0.021982 -0.004441)
 61:   1081.15   0.007336   37.07  0.002117  (-0.033508 -0.020779 -0.023724)
 62:   1101.40   0.004766   24.08  0.001350  ( 0.034977  0.001396  0.011179)
 63:   1104.41   0.001760    8.89  0.000497  ( 0.021490  0.001698  0.005712)
 64:   1104.87   0.007752   39.18  0.002190  ( 0.021903 -0.040887  0.006179)
 65:   1126.73   0.000491    2.48  0.000136  ( 0.003442 -0.010948  0.002091)
 66:   1147.26   0.002774   14.02  0.000755  ( 0.025239 -0.010075  0.004010)
 67:   1189.49   0.000492    2.49  0.000129  ( 0.007370 -0.008184  0.002809)
 68:   1199.66   0.001241    6.27  0.000323  (-0.012899 -0.005948  0.011008)
 69:   1206.47   0.002542   12.85  0.000658  ( 0.008730 -0.024038  0.001883)
 70:   1225.53   0.007845   39.64  0.001998  ( 0.013558 -0.038329  0.018564)
 71:   1282.34   0.002844   14.37  0.000692  (-0.019761 -0.005372  0.016516)
 72:   1288.25   0.003701   18.71  0.000897  ( 0.025983 -0.008183  0.012432)
 73:   1297.55   0.000248    1.25  0.000060  (-0.003330  0.006944  0.000633)
 74:   1333.36   0.013251   66.97  0.003101  ( 0.053230  0.005923  0.015258)
 75:   1335.87   0.000183    0.93  0.000043  ( 0.004428  0.000882  0.004733)
 76:   1344.30   0.000340    1.72  0.000079  ( 0.001573 -0.008746  0.000028)
 77:   1356.97   0.000266    1.35  0.000061  ( 0.004309 -0.006407 -0.001289)
 78:   1369.74   0.000083    0.42  0.000019  (-0.001229  0.004167  0.000238)
 79:   1373.07   0.004670   23.60  0.001061  ( 0.008962 -0.004140 -0.031049)
 80:   1378.42   0.000409    2.07  0.000093  (-0.008792  0.003131  0.002365)
 81:   1381.12   0.000591    2.99  0.000134  ( 0.008844  0.007256 -0.001658)
 82:   1398.39   0.002098   10.60  0.000468  (-0.015888 -0.004950  0.013829)
 83:   1400.66   0.012039   60.84  0.002682  (-0.011484  0.037721  0.033578)
 84:   1421.56   0.029666  149.92  0.006512  ( 0.044573 -0.035347 -0.057238)
 85:   1462.11   0.003122   15.78  0.000666  ( 0.007180 -0.024716  0.001970)
 86:   1470.19   0.003397   17.17  0.000721  ( 0.025123 -0.000905  0.009443)
 87:   1472.94   0.002971   15.01  0.000629  (-0.022686  0.008538 -0.006468)
 88:   1478.12   0.001997   10.09  0.000422  ( 0.011256  0.006182  0.016020)
 89:   1479.39   0.000762    3.85  0.000161  (-0.005563 -0.009372  0.006482)
 90:   1484.69   0.001727    8.73  0.000363  (-0.015923 -0.007362  0.007436)
 91:   1484.96   0.002685   13.57  0.000564  (-0.010986 -0.006536 -0.020020)
 92:   1491.51   0.002004   10.13  0.000419  ( 0.005609 -0.019429 -0.003208)
 93:   1497.22   0.000797    4.03  0.000166  ( 0.009089 -0.006244  0.006670)
 94:   1510.70   0.010220   51.65  0.002111  ( 0.033910 -0.027824  0.013676)
 95:   1567.22   0.120826  610.61  0.024059  ( 0.152268  0.026311  0.013454)
 96:   1612.54   0.008918   45.07  0.001726  (-0.036801  0.013480 -0.013779)
 97:   1634.35   0.003391   17.14  0.000647  (-0.005316  0.024795 -0.002092)
 98:   1648.10   0.014151   71.51  0.002679  (-0.007802  0.050623  0.007473)
 99:   3005.36   0.008054   40.70  0.000836  ( 0.014152  0.005196 -0.024678)
100:   3010.09   0.011330   57.26  0.001175  (-0.005030  0.033344  0.006124)
101:   3012.19   0.015960   80.66  0.001653  ( 0.038397  0.006601  0.011644)
102:   3017.88   0.008443   42.67  0.000873  (-0.002896  0.006782  0.028612)
103:   3023.51   0.014706   74.32  0.001518  ( 0.013568  0.019351 -0.030972)
104:   3050.60   0.288046  1455.67  0.029466  (-0.151247 -0.048948  0.064763)
105:   3054.12   0.001874    9.47  0.000191  ( 0.005027  0.010313 -0.007735)
106:   3056.05   0.045509  229.99  0.004647  (-0.054302 -0.020574  0.035709)
107:   3058.92   0.023994  121.26  0.002448  ( 0.024736 -0.042825 -0.001398)
108:   3065.15   0.125984  636.67  0.012826  (-0.107001 -0.035550 -0.010654)
109:   3076.67   0.014720   74.39  0.001493  ( 0.003699  0.031546 -0.022003)
110:   3079.61   0.020155  101.86  0.002042  (-0.014536  0.010127  0.041575)
111:   3119.03   0.005668   28.64  0.000567  (-0.003129  0.011651 -0.020531)
112:   3120.86   0.003796   19.18  0.000380  (-0.000271  0.015850  0.011324)
113:   3142.57   0.001309    6.61  0.000130  ( 0.009333 -0.006381 -0.001459)
114:   3186.44   0.001111    5.61  0.000109  ( 0.008770  0.004779  0.003006)
115:   3204.73   0.000184    0.93  0.000018  (-0.001819 -0.003757 -0.000691)
116:   3206.33   0.000062    0.31  0.000006  (-0.001681 -0.001608 -0.000781)
117:   3223.28   0.000087    0.44  0.000008  (-0.002765  0.000690  0.000548)
118:   3464.77   0.000736    3.72  0.000066  (-0.001577 -0.000840 -0.007946)
119:   3811.83   0.012762   64.49  0.001045  ( 0.024832 -0.013354 -0.015806)

--------------------------
THERMOCHEMISTRY AT 298.15K
--------------------------

Temperature         ... 298.15 K
Pressure            ... 1.00 atm
Total Mass          ... 288.77 AMU

Throughout the following assumptions are being made:
  (1) The electronic state is orbitally nondegenerate
  (2) There are no thermally accessible electronically excited states
  (3) Hindered rotations indicated by low frequency modes are not
      treated as such but are treated as vibrations and this may
      cause some error
  (4) All equations used are the standard statistical mechanics
      equations for an ideal gas
  (5) All vibrations are strictly harmonic

freq.       8.86  E(vib)   ...       0.58
freq.      18.68  E(vib)   ...       0.57
freq.      34.24  E(vib)   ...       0.54
freq.      34.98  E(vib)   ...       0.54
freq.      44.35  E(vib)   ...       0.53
freq.      46.53  E(vib)   ...       0.53
freq.      53.47  E(vib)   ...       0.52
freq.      61.15  E(vib)   ...       0.51
freq.      81.07  E(vib)   ...       0.48
freq.      89.73  E(vib)   ...       0.47
freq.     150.50  E(vib)   ...       0.40
freq.     182.30  E(vib)   ...       0.37
freq.     193.58  E(vib)   ...       0.36
freq.     229.75  E(vib)   ...       0.32
freq.     240.66  E(vib)   ...       0.31
freq.     248.02  E(vib)   ...       0.31
freq.     249.55  E(vib)   ...       0.31
freq.     265.50  E(vib)   ...       0.29
freq.     297.49  E(vib)   ...       0.27
freq.     311.51  E(vib)   ...       0.25
freq.     382.68  E(vib)   ...       0.20
freq.     404.10  E(vib)   ...       0.19
freq.     414.51  E(vib)   ...       0.19
freq.     452.05  E(vib)   ...       0.16
freq.     454.60  E(vib)   ...       0.16
freq.     464.45  E(vib)   ...       0.16
freq.     471.13  E(vib)   ...       0.15
freq.     515.28  E(vib)   ...       0.13
freq.     549.00  E(vib)   ...       0.12
freq.     576.28  E(vib)   ...       0.11
freq.     603.18  E(vib)   ...       0.10
freq.     658.23  E(vib)   ...       0.08
freq.     696.77  E(vib)   ...       0.07
freq.     710.43  E(vib)   ...       0.07
freq.     774.98  E(vib)   ...       0.05
freq.     800.94  E(vib)   ...       0.05
freq.     817.14  E(vib)   ...       0.05
freq.     818.01  E(vib)   ...       0.05
freq.     825.16  E(vib)   ...       0.04
freq.     855.45  E(vib)   ...       0.04
freq.     866.82  E(vib)   ...       0.04
freq.     876.66  E(vib)   ...       0.04
freq.     880.80  E(vib)   ...       0.04
freq.     900.03  E(vib)   ...       0.03
freq.     917.15  E(vib)   ...       0.03
freq.     936.00  E(vib)   ...       0.03
freq.     957.66  E(vib)   ...       0.03
freq.     966.97  E(vib)   ...       0.03
freq.    1003.10  E(vib)   ...       0.02
freq.    1020.54  E(vib)   ...       0.02
freq.    1021.73  E(vib)   ...       0.02
freq.    1023.15  E(vib)   ...       0.02
freq.    1053.99  E(vib)   ...       0.02
freq.    1059.45  E(vib)   ...       0.02
freq.    1081.15  E(vib)   ...       0.02
freq.    1101.40  E(vib)   ...       0.02
freq.    1104.41  E(vib)   ...       0.02
freq.    1104.87  E(vib)   ...       0.02
freq.    1126.73  E(vib)   ...       0.01
freq.    1147.26  E(vib)   ...       0.01
freq.    1189.49  E(vib)   ...       0.01
freq.    1199.66  E(vib)   ...       0.01
freq.    1206.47  E(vib)   ...       0.01
freq.    1225.53  E(vib)   ...       0.01
freq.    1282.34  E(vib)   ...       0.01
freq.    1288.25  E(vib)   ...       0.01
freq.    1297.55  E(vib)   ...       0.01
freq.    1333.36  E(vib)   ...       0.01
freq.    1335.87  E(vib)   ...       0.01
freq.    1344.30  E(vib)   ...       0.01
freq.    1356.97  E(vib)   ...       0.01
freq.    1369.74  E(vib)   ...       0.01
freq.    1373.07  E(vib)   ...       0.01
freq.    1378.42  E(vib)   ...       0.01
freq.    1381.12  E(vib)   ...       0.01
freq.    1398.39  E(vib)   ...       0.00
freq.    1400.66  E(vib)   ...       0.00
freq.    1421.56  E(vib)   ...       0.00
freq.    1462.11  E(vib)   ...       0.00
freq.    1470.19  E(vib)   ...       0.00
freq.    1472.94  E(vib)   ...       0.00
freq.    1478.12  E(vib)   ...       0.00
freq.    1479.39  E(vib)   ...       0.00
freq.    1484.69  E(vib)   ...       0.00
freq.    1484.96  E(vib)   ...       0.00
freq.    1491.51  E(vib)   ...       0.00
freq.    1497.22  E(vib)   ...       0.00
freq.    1510.70  E(vib)   ...       0.00
freq.    1567.22  E(vib)   ...       0.00
freq.    1612.54  E(vib)   ...       0.00
freq.    1634.35  E(vib)   ...       0.00
freq.    1648.10  E(vib)   ...       0.00
freq.    3005.36  E(vib)   ...       0.00
freq.    3010.09  E(vib)   ...       0.00
freq.    3012.19  E(vib)   ...       0.00
freq.    3017.88  E(vib)   ...       0.00
freq.    3023.51  E(vib)   ...       0.00
freq.    3050.60  E(vib)   ...       0.00
freq.    3054.12  E(vib)   ...       0.00
freq.    3056.05  E(vib)   ...       0.00
freq.    3058.92  E(vib)   ...       0.00
freq.    3065.15  E(vib)   ...       0.00
freq.    3076.67  E(vib)   ...       0.00
freq.    3079.61  E(vib)   ...       0.00
freq.    3119.03  E(vib)   ...       0.00
freq.    3120.86  E(vib)   ...       0.00
freq.    3142.57  E(vib)   ...       0.00
freq.    3186.44  E(vib)   ...       0.00
freq.    3204.73  E(vib)   ...       0.00
freq.    3206.33  E(vib)   ...       0.00
freq.    3223.28  E(vib)   ...       0.00
freq.    3464.77  E(vib)   ...       0.00
freq.    3811.83  E(vib)   ...       0.00

------------
INNER ENERGY
------------

The inner energy is: U= E(el) + E(ZPE) + E(vib) + E(rot) + E(trans)
    E(el)   - is the total energy from the electronic structure calculation
              = E(kin-el) + E(nuc-el) + E(el-el) + E(nuc-nuc)
    E(ZPE)  - the the zero temperature vibrational energy from the frequency calculation
    E(vib)  - the the finite temperature correction to E(ZPE) due to population
              of excited vibrational states
    E(rot)  - is the rotational thermal energy
    E(trans)- is the translational thermal energy

Summary of contributions to the inner energy U:
Electronic energy                ...  -1303.21576538 Eh
Zero point energy                ...      0.33330277 Eh     209.15 kcal/mol
Thermal vibrational correction   ...      0.01800090 Eh      11.30 kcal/mol
Thermal rotational correction    ...      0.00141627 Eh       0.89 kcal/mol
Thermal translational correction ...      0.00141627 Eh       0.89 kcal/mol
-----------------------------------------------------------------------
Total thermal energy                  -1302.86162916 Eh

Summary of corrections to the electronic energy:
(perhaps to be used in another calculation)
Total thermal correction                  0.02083344 Eh      13.07 kcal/mol
Non-thermal (ZPE) correction              0.33330277 Eh     209.15 kcal/mol
-----------------------------------------------------------------------
Total correction                          0.35413622 Eh     222.22 kcal/mol

Rotational constants in cm-1:     0.014998     0.004987     0.004325

                             ****ORCA TERMINATED NORMALLY****
TOTAL RUN TIME: 0 days 1 hours 13 minutes 56 seconds 426 msec
