                         Program Version 5.0.4 -  RELEASE  -
|  1> !  NUMFREQ B3LYP def2-TZVP CPCM D3
|  2> %pal nprocs 102 end
|  3> %cpcm epsilon 78.4 end
|  4> *xyz -1 1
|  5> C   -1.05752749526519 0.36360180290992 0.77781671393328
|  6> C   0.26368209241689 0.28698929561525 1.19129891956666
|  7> C   1.24370936285987 -0.22424773044633 0.341536361228
|  8> C   0.88955697432901 -0.65979650520693 -0.93751073535811
|  9> C   -0.42327158676595 -0.58379600975235 -1.36929995806454
| 10> C   -1.38069449636238 -0.0733683625047 -0.499672442824
| 11> H   -1.82373400265124 0.75754757645676 1.42789087943566
| 12> H   0.54885456900215 0.62662874444079 2.17892295089569
| 13> H   1.64387099466792 -1.05691235293547 -1.6045458064792
| 14> C   2.66541893354119 -0.33619091482923 0.83486679524581
| 15> H   2.72600148882527 0.11524701193926 1.85119360905003 M = 2
| 16> C   3.19830444535229 -1.75525043865316 0.86190804171285
| 17> H   4.20090501132005 -1.78453114819516 1.28444748239862
| 18> H   3.21655762411401 -2.20711523390506 -0.13009326515417
| 19> H   2.53920261631332 -2.34656159038351 1.49866523562834
| 20> N   3.5513074859882 0.57806696746375 0.00834453005727
| 21> O   4.63848371444898 0.17307203248405 -0.37128935891798
| 22> O   3.14457220404662 1.71556976574568 -0.19041776876125
| 23> O   2.52516355048578 2.65058556683422 5.27727201819149
| 24> H   2.90797688578389 2.33992749061378 6.10463717095215
| 25> H   -0.70585486603868 -0.91390216680189 -2.35715182409814
| 26> N   -2.7729293685859 0.00646102787105 -0.94632967360963
| 27> O   -3.042500120266 -0.37788193834496 -2.07795612563574
| 28> O   -3.60797579629772 0.45333807174945 -0.16907173182872
| 29> H   2.02583932764821 0.03567598651541 3.93054757944119
| 30> H   2.5808078568775 1.84147190486383 4.62696918755246
| 31> O   2.67550259421184 0.68989114645554 3.64866121544191
| 32> *
| 33>
| 34>                          ****END OF INPUT****

CARTESIAN COORDINATES (ANGSTROEM)
---------------------------------
  C     -1.057527    0.363602    0.777817
  C      0.263682    0.286989    1.191299
  C      1.243709   -0.224248    0.341536
  C      0.889557   -0.659797   -0.937511
  C     -0.423272   -0.583796   -1.369300
  C     -1.380694   -0.073368   -0.499672
  H     -1.823734    0.757548    1.427891
  H      0.548855    0.626629    2.178923
  H      1.643871   -1.056912   -1.604546
  C      2.665419   -0.336191    0.834867
  H      2.726001    0.115247    1.851194
  C      3.198304   -1.755250    0.861908
  H      4.200905   -1.784531    1.284447
  H      3.216558   -2.207115   -0.130093
  H      2.539203   -2.346562    1.498665
  N      3.551307    0.578067    0.008345
  O      4.638484    0.173072   -0.371289
  O      3.144572    1.715570   -0.190418
  O      2.525164    2.650586    5.277272
  H      2.907977    2.339927    6.104637
  H     -0.705855   -0.913902   -2.357152
  N     -2.772929    0.006461   -0.946330
  O     -3.042500   -0.377882   -2.077956
  O     -3.607976    0.453338   -0.169072
  H      2.025839    0.035676    3.930548
  H      2.580808    1.841472    4.626969
  O      2.675503    0.689891    3.648661

 Total Charge           Charge          ....   -1
 Multiplicity           Mult            ....    1
 Number of Electrons    NEL             ....  122
 Basis Dimension        Dim             ....  562

ORBITAL ENERGIES
----------------

  NO   OCC          E(Eh)            E(eV)
   0   2.0000     -19.167953      -521.5865
   1   2.0000     -19.167898      -521.5850
   2   2.0000     -19.165867      -521.5298
   3   2.0000     -19.162100      -521.4273
   4   2.0000     -19.067881      -518.8634
   5   2.0000     -19.019202      -517.5388
   6   2.0000     -14.561298      -396.2331
   7   2.0000     -14.547102      -395.8468
   8   2.0000     -10.237954      -278.5889
   9   2.0000     -10.221087      -278.1299
  10   2.0000     -10.206507      -277.7332
  11   2.0000     -10.198999      -277.5289
  12   2.0000     -10.198302      -277.5099
  13   2.0000     -10.191387      -277.3217
  14   2.0000     -10.187694      -277.2213
  15   2.0000     -10.165601      -276.6201
  16   2.0000      -1.241347       -33.7788
  17   2.0000      -1.234126       -33.5823
  18   2.0000      -1.065745       -29.0004
  19   2.0000      -1.060387       -28.8546
  20   2.0000      -0.948110       -25.7994
  21   2.0000      -0.896506       -24.3952
  22   2.0000      -0.865287       -23.5457
  23   2.0000      -0.845694       -23.0125
  24   2.0000      -0.793186       -21.5837
  25   2.0000      -0.771223       -20.9861
  26   2.0000      -0.702917       -19.1273
  27   2.0000      -0.698194       -18.9988
  28   2.0000      -0.635713       -17.2986
  29   2.0000      -0.609110       -16.5747
  30   2.0000      -0.582834       -15.8597
  31   2.0000      -0.570545       -15.5253
  32   2.0000      -0.549374       -14.9492
  33   2.0000      -0.547772       -14.9056
  34   2.0000      -0.541083       -14.7236
  35   2.0000      -0.529141       -14.3986
  36   2.0000      -0.523106       -14.2344
  37   2.0000      -0.483599       -13.1594
  38   2.0000      -0.474437       -12.9101
  39   2.0000      -0.466327       -12.6894
  40   2.0000      -0.458134       -12.4665
  41   2.0000      -0.443343       -12.0640
  42   2.0000      -0.422906       -11.5079
  43   2.0000      -0.406052       -11.0492
  44   2.0000      -0.394458       -10.7338
  45   2.0000      -0.381084       -10.3698
  46   2.0000      -0.368634       -10.0310
  47   2.0000      -0.365433        -9.9439
  48   2.0000      -0.359908        -9.7936
  49   2.0000      -0.337514        -9.1842
  50   2.0000      -0.330361        -8.9896
  51   2.0000      -0.328730        -8.9452
  52   2.0000      -0.325250        -8.8505
  53   2.0000      -0.316249        -8.6056
  54   2.0000      -0.308744        -8.4014
  55   2.0000      -0.304193        -8.2775
  56   2.0000      -0.277497        -7.5511
  57   2.0000      -0.277056        -7.5391
  58   2.0000      -0.272039        -7.4026
  59   2.0000      -0.224501        -6.1090
  60   2.0000      -0.218450        -5.9443
  61   0.0000      -0.103453        -2.8151
  62   0.0000      -0.073848        -2.0095
  63   0.0000      -0.030218        -0.8223
  64   0.0000      -0.009738        -0.2650
  65   0.0000       0.043629         1.1872

MULLIKEN ATOMIC CHARGES
-----------------------
   0 C :   -0.181250
   1 C :   -0.150644
   2 C :    0.148538
   3 C :   -0.188932
   4 C :   -0.170560
   5 C :    0.143669
   6 H :    0.166502
   7 H :    0.093546
   8 H :    0.159078
   9 C :    0.043285
  10 H :    0.134175
  11 C :   -0.366505
  12 H :    0.135115
  13 H :    0.135108
  14 H :    0.136398
  15 N :    0.413371
  16 O :   -0.348578
  17 O :   -0.365176
  18 O :   -0.824378
  19 H :    0.318744
  20 H :    0.167614
  21 N :    0.447092
  22 O :   -0.354989
  23 O :   -0.354857
  24 H :    0.286763
  25 H :    0.358329
  26 O :   -0.981458
Sum of atomic charges:   -1.0000000

LOEWDIN ATOMIC CHARGES
----------------------
   0 C :   -0.081251
   1 C :   -0.084964
   2 C :   -0.110135
   3 C :   -0.080475
   4 C :   -0.082178
   5 C :   -0.157048
   6 H :    0.161734
   7 H :    0.151809
   8 H :    0.163107
   9 C :   -0.222726
  10 H :    0.172020
  11 C :   -0.271547
  12 H :    0.128133
  13 H :    0.128193
  14 H :    0.138011
  15 N :   -0.030595
  16 O :   -0.049500
  17 O :   -0.062555
  18 O :   -0.467156
  19 H :    0.136719
  20 H :    0.161974
  21 N :   -0.013406
  22 O :   -0.053003
  23 O :   -0.053087
  24 H :    0.093070
  25 H :    0.113385
  26 O :   -0.728531

  Mayer bond orders larger than 0.100000
B(  0-C ,  1-C ) :   1.4397 B(  0-C ,  5-C ) :   1.3549 B(  0-C ,  6-H ) :   0.9522
B(  1-C ,  2-C ) :   1.3616 B(  1-C ,  7-H ) :   0.9317 B(  2-C ,  3-C ) :   1.3200
B(  2-C ,  9-C ) :   0.8880 B(  3-C ,  4-C ) :   1.4412 B(  3-C ,  8-H ) :   0.9760
B(  4-C ,  5-C ) :   1.3397 B(  4-C , 20-H ) :   0.9506 B(  5-C , 21-N ) :   0.9985
B(  7-H , 26-O ) :   0.1828 B(  9-C , 10-H ) :   0.8684 B(  9-C , 11-C ) :   0.9440
B(  9-C , 15-N ) :   0.8438 B( 10-H , 26-O ) :   0.2469 B( 11-C , 12-H ) :   0.9679
B( 11-C , 13-H ) :   0.9598 B( 11-C , 14-H ) :   0.9667 B( 15-N , 16-O ) :   1.6203
B( 15-N , 17-O ) :   1.6126 B( 16-O , 17-O ) :   0.1933 B( 18-O , 19-H ) :   0.9045
B( 18-O , 25-H ) :   0.6883 B( 21-N , 22-O ) :   1.5934 B( 21-N , 23-O ) :   1.5935
B( 22-O , 23-O ) :   0.1886 B( 24-H , 26-O ) :   0.9235 B( 25-H , 26-O ) :   0.2746

Dispersion correction           -0.048305977
FINAL SINGLE POINT ENERGY      -872.243435403113
Dispersion correction            ... done

DIPOLE MOMENT
-------------
                                X             Y             Z
Electronic contribution:    -10.11694       0.83302     -14.78059
Nuclear contribution   :      8.01688      -4.69431      11.10074
                        -----------------------------------------
Total Dipole Moment    :     -2.10006      -3.86130      -3.67985
                        -----------------------------------------
Magnitude (a.u.)       :      5.73247
Magnitude (Debye)      :     14.57077

VIBRATIONAL FREQUENCIES
-----------------------

Scaling factor for frequencies =  1.000000000 (already applied!)

   0:         0.00 cm**-1
   1:         0.00 cm**-1
   2:         0.00 cm**-1
   3:         0.00 cm**-1
   4:         0.00 cm**-1
   5:         0.00 cm**-1
   6:       -10.51 cm**-1 ***imaginary mode***
   7:        21.78 cm**-1
   8:        35.11 cm**-1
   9:        37.25 cm**-1
  10:        41.99 cm**-1
  11:        52.02 cm**-1
  12:        60.52 cm**-1
  13:        74.92 cm**-1
  14:        97.70 cm**-1
  15:       118.12 cm**-1
  16:       145.95 cm**-1
  17:       170.30 cm**-1
  18:       236.28 cm**-1
  19:       239.66 cm**-1
  20:       261.10 cm**-1
  21:       291.20 cm**-1
  22:       314.97 cm**-1
  23:       333.33 cm**-1
  24:       344.40 cm**-1
  25:       420.70 cm**-1
  26:       442.46 cm**-1
  27:       471.41 cm**-1
  28:       489.08 cm**-1
  29:       527.35 cm**-1
  30:       552.13 cm**-1
  31:       561.03 cm**-1
  32:       565.85 cm**-1
  33:       644.24 cm**-1
  34:       661.87 cm**-1
  35:       722.71 cm**-1
  36:       755.07 cm**-1
  37:       788.27 cm**-1
  38:       801.89 cm**-1
  39:       854.10 cm**-1
  40:       872.59 cm**-1
  41:       876.28 cm**-1
  42:       894.17 cm**-1
  43:       908.07 cm**-1
  44:       998.89 cm**-1
  45:      1014.41 cm**-1
  46:      1036.92 cm**-1
  47:      1040.52 cm**-1
  48:      1105.93 cm**-1
  49:      1116.43 cm**-1
  50:      1123.01 cm**-1
  51:      1125.58 cm**-1
  52:      1137.58 cm**-1
  53:      1159.21 cm**-1
  54:      1203.31 cm**-1
  55:      1282.37 cm**-1
  56:      1333.23 cm**-1
  57:      1352.82 cm**-1
  58:      1358.32 cm**-1
  59:      1381.78 cm**-1
  60:      1413.51 cm**-1
  61:      1442.12 cm**-1
  62:      1472.04 cm**-1
  63:      1480.65 cm**-1
  64:      1527.98 cm**-1
  65:      1531.70 cm**-1
  66:      1542.23 cm**-1
  67:      1634.59 cm**-1
  68:      1636.93 cm**-1
  69:      1639.40 cm**-1
  70:      2014.14 cm**-1
  71:      2346.68 cm**-1
  72:      3050.31 cm**-1
  73:      3114.80 cm**-1
  74:      3129.46 cm**-1
  75:      3177.38 cm**-1
  76:      3187.65 cm**-1
  77:      3228.34 cm**-1
  78:      3230.35 cm**-1
  79:      3787.79 cm**-1
  80:      3817.14 cm**-1

IR SPECTRUM
-----------

 Mode   freq       eps      Int      T**2         TX        TY        TZ
       cm**-1   L/(mol*cm) km/mol    a.u.
----------------------------------------------------------------------------
  7:     21.78   0.000176    0.89  0.002519  ( 0.019001  0.044693  0.012683)
  8:     35.11   0.004947   25.00  0.043975  (-0.188078  0.075225 -0.054252)
  9:     37.25   0.001069    5.40  0.008953  (-0.094345  0.006545 -0.003024)
 10:     41.99   0.001044    5.28  0.007759  (-0.065192 -0.035196 -0.047651)
 11:     52.02   0.000403    2.04  0.002419  (-0.030135 -0.037837  0.008922)
 12:     60.52   0.002330   11.78  0.012015  ( 0.047283 -0.095735  0.024785)
 13:     74.92   0.005098   25.76  0.021234  (-0.090611 -0.112018 -0.021810)
 14:     97.70   0.025989  131.34  0.083015  ( 0.284491  0.045449  0.003750)
 15:    118.12   0.024015  121.36  0.063444  ( 0.107268  0.027318 -0.226254)
 16:    145.95   0.001700    8.59  0.003634  (-0.039732 -0.028027 -0.035631)
 17:    170.30   0.000478    2.42  0.000876  ( 0.021437  0.012597 -0.016070)
 18:    236.28   0.000131    0.66  0.000173  (-0.005043 -0.005615 -0.010785)
 19:    239.66   0.000275    1.39  0.000359  ( 0.010598 -0.013444  0.008099)
 20:    261.10   0.027516  139.05  0.032887  (-0.106583  0.106092 -0.101348)
 21:    291.20   0.000174    0.88  0.000186  (-0.011396  0.005570 -0.005030)
 22:    314.97   0.058104  293.63  0.057569  ( 0.005735  0.152126  0.185454)
 23:    333.33   0.002489   12.58  0.002330  ( 0.031830 -0.034533  0.011167)
 24:    344.40   0.000174    0.88  0.000158  ( 0.011916  0.003611 -0.001729)
 25:    420.70   0.000188    0.95  0.000140  (-0.000190  0.011507  0.002687)
 26:    442.46   0.008089   40.88  0.005705  ( 0.035735  0.030145  0.059324)
 27:    471.41   0.016185   81.79  0.010714  (-0.006207 -0.051165 -0.089764)
 28:    489.08   0.000389    1.97  0.000249  (-0.000823 -0.004940 -0.014948)
 29:    527.35   0.000214    1.08  0.000126  (-0.009466  0.006024  0.000741)
 30:    552.13   0.005810   29.36  0.003284  ( 0.007626 -0.046967 -0.031937)
 31:    561.03   0.024924  125.95  0.013863  ( 0.016248  0.037034  0.110580)
 32:    565.85   0.013724   69.35  0.007569  ( 0.025794  0.075514  0.034655)
 33:    644.24   0.000661    3.34  0.000320  (-0.003855 -0.013115 -0.011550)
 34:    661.87   0.000928    4.69  0.000437  (-0.013727 -0.015431  0.003293)
 35:    722.71   0.002903   14.67  0.001253  ( 0.002106 -0.033335  0.011735)
 36:    755.07   0.011795   59.61  0.004875  (-0.027696 -0.060411  0.021403)
 37:    788.27   0.005192   26.24  0.002056  ( 0.038101 -0.010654  0.022144)
 38:    801.89   0.002803   14.17  0.001091  ( 0.028585  0.008941  0.013919)
 39:    854.10   0.000510    2.58  0.000186  ( 0.000670  0.012474 -0.005505)
 40:    872.59   0.007458   37.69  0.002667  ( 0.023503 -0.020838  0.040994)
 41:    876.28   0.012194   61.62  0.004342  (-0.062257 -0.012104  0.017886)
 42:    894.17   0.003861   19.51  0.001347  (-0.002809 -0.033893  0.013813)
 43:    908.07   0.007567   38.24  0.002601  ( 0.037900  0.034118 -0.000317)
 44:    998.89   0.000097    0.49  0.000030  ( 0.004418 -0.003185  0.000793)
 45:   1014.41   0.003331   16.83  0.001025  ( 0.029785 -0.005993 -0.010085)
 46:   1036.92   0.004324   21.85  0.001301  (-0.034996  0.002147 -0.008478)
 47:   1040.52   0.000190    0.96  0.000057  (-0.001925 -0.003693 -0.006290)
 48:   1105.93   0.006526   32.98  0.001842  (-0.015398  0.024903  0.031373)
 49:   1116.43   0.008428   42.59  0.002356  ( 0.024630  0.001174  0.041807)
 50:   1123.01   0.043815  221.42  0.012175  (-0.109192 -0.009430  0.012790)
 51:   1125.58   0.002706   13.68  0.000750  (-0.002314  0.012303 -0.024365)
 52:   1137.58   0.000377    1.91  0.000104  ( 0.000672  0.001115 -0.010092)
 53:   1159.21   0.003813   19.27  0.001026  ( 0.008848  0.022085  0.021456)
 54:   1203.31   0.000770    3.89  0.000200  ( 0.013370 -0.004552 -0.000475)
 55:   1282.37   0.011707   59.16  0.002849  ( 0.038766 -0.021614  0.029646)
 56:   1333.23   0.002855   14.43  0.000668  ( 0.007396 -0.003746 -0.024488)
 57:   1352.82   0.022911  115.78  0.005285  (-0.060116  0.012748  0.038840)
 58:   1358.32   0.159146  804.26  0.036563  (-0.184328  0.000602 -0.050845)
 59:   1381.78   0.041667  210.57  0.009410  (-0.041769 -0.040006  0.077878)
 60:   1413.51   0.013735   69.41  0.003032  ( 0.013759  0.043173 -0.031290)
 61:   1442.12   0.000305    1.54  0.000066  ( 0.003308 -0.004502 -0.005902)
 62:   1472.04   0.000887    4.48  0.000188  (-0.009184 -0.003465 -0.009570)
 63:   1480.65   0.003648   18.44  0.000769  (-0.001478  0.014806 -0.023398)
 64:   1527.98   0.001781    9.00  0.000364  ( 0.019063 -0.000242  0.000621)
 65:   1531.70   0.097774  494.11  0.019920  ( 0.019776 -0.043560 -0.132784)
 66:   1542.23   0.158244  799.70  0.032020  ( 0.129112 -0.118387 -0.036533)
 67:   1634.59   0.006192   31.29  0.001182  ( 0.011353 -0.013297 -0.029605)
 68:   1636.93   0.017220   87.02  0.003283  ( 0.013469 -0.054628  0.010826)
 69:   1639.40   0.010713   54.14  0.002039  (-0.040444  0.006504 -0.019009)
 70:   2014.14   0.180137  910.34  0.027910  ( 0.011250 -0.053687 -0.157800)
 71:   2346.68   0.627806  3172.68  0.083486  (-0.006326 -0.204338 -0.204187)
 72:   3050.31   0.002473   12.50  0.000253  ( 0.002930 -0.015631 -0.000312)
 73:   3114.80   0.003309   16.72  0.000331  (-0.009613  0.000121  0.015461)
 74:   3129.46   0.004299   21.73  0.000429  (-0.016746 -0.002966 -0.011812)
 75:   3177.38   0.001919    9.70  0.000188  ( 0.010661  0.000811  0.008611)
 76:   3187.65   0.000677    3.42  0.000066  ( 0.006456 -0.002988 -0.003955)
 77:   3228.34   0.000451    2.28  0.000044  ( 0.004781 -0.002241 -0.003963)
 78:   3230.35   0.000579    2.93  0.000056  ( 0.004105  0.001541  0.006059)
 79:   3787.79   0.000318    1.61  0.000026  ( 0.003013  0.001496  0.003862)
 80:   3817.14   0.005998   30.31  0.000490  ( 0.006861  0.000547  0.021046)

--------------------------
THERMOCHEMISTRY AT 298.15K
--------------------------

Temperature         ... 298.15 K
Pressure            ... 1.00 atm
Total Mass          ... 232.18 AMU

Throughout the following assumptions are being made:
  (1) The electronic state is orbitally nondegenerate
  (2) There are no thermally accessible electronically excited states
  (3) Hindered rotations indicated by low frequency modes are not
      treated as such but are treated as vibrations and this may
      cause some error
  (4) All equations used are the standard statistical mechanics
      equations for an ideal gas
  (5) All vibrations are strictly harmonic

freq.      21.78  E(vib)   ...       0.56
freq.      35.11  E(vib)   ...       0.54
freq.      37.25  E(vib)   ...       0.54
freq.      41.99  E(vib)   ...       0.53
freq.      52.02  E(vib)   ...       0.52
freq.      60.52  E(vib)   ...       0.51
freq.      74.92  E(vib)   ...       0.49
freq.      97.70  E(vib)   ...       0.46
freq.     118.12  E(vib)   ...       0.44
freq.     145.95  E(vib)   ...       0.41
freq.     170.30  E(vib)   ...       0.38
freq.     236.28  E(vib)   ...       0.32
freq.     239.66  E(vib)   ...       0.31
freq.     261.10  E(vib)   ...       0.30
freq.     291.20  E(vib)   ...       0.27
freq.     314.97  E(vib)   ...       0.25
freq.     333.33  E(vib)   ...       0.24
freq.     344.40  E(vib)   ...       0.23
freq.     420.70  E(vib)   ...       0.18
freq.     442.46  E(vib)   ...       0.17
freq.     471.41  E(vib)   ...       0.15
freq.     489.08  E(vib)   ...       0.15
freq.     527.35  E(vib)   ...       0.13
freq.     552.13  E(vib)   ...       0.12
freq.     561.03  E(vib)   ...       0.11
freq.     565.85  E(vib)   ...       0.11
freq.     644.24  E(vib)   ...       0.09
freq.     661.87  E(vib)   ...       0.08
freq.     722.71  E(vib)   ...       0.07
freq.     755.07  E(vib)   ...       0.06
freq.     788.27  E(vib)   ...       0.05
freq.     801.89  E(vib)   ...       0.05
freq.     854.10  E(vib)   ...       0.04
freq.     872.59  E(vib)   ...       0.04
freq.     876.28  E(vib)   ...       0.04
freq.     894.17  E(vib)   ...       0.03
freq.     908.07  E(vib)   ...       0.03
freq.     998.89  E(vib)   ...       0.02
freq.    1014.41  E(vib)   ...       0.02
freq.    1036.92  E(vib)   ...       0.02
freq.    1040.52  E(vib)   ...       0.02
freq.    1105.93  E(vib)   ...       0.02
freq.    1116.43  E(vib)   ...       0.01
freq.    1123.01  E(vib)   ...       0.01
freq.    1125.58  E(vib)   ...       0.01
freq.    1137.58  E(vib)   ...       0.01
freq.    1159.21  E(vib)   ...       0.01
freq.    1203.31  E(vib)   ...       0.01
freq.    1282.37  E(vib)   ...       0.01
freq.    1333.23  E(vib)   ...       0.01
freq.    1352.82  E(vib)   ...       0.01
freq.    1358.32  E(vib)   ...       0.01
freq.    1381.78  E(vib)   ...       0.01
freq.    1413.51  E(vib)   ...       0.00
freq.    1442.12  E(vib)   ...       0.00
freq.    1472.04  E(vib)   ...       0.00
freq.    1480.65  E(vib)   ...       0.00
freq.    1527.98  E(vib)   ...       0.00
freq.    1531.70  E(vib)   ...       0.00
freq.    1542.23  E(vib)   ...       0.00
freq.    1634.59  E(vib)   ...       0.00
freq.    1636.93  E(vib)   ...       0.00
freq.    1639.40  E(vib)   ...       0.00
freq.    2014.14  E(vib)   ...       0.00
freq.    2346.68  E(vib)   ...       0.00
freq.    3050.31  E(vib)   ...       0.00
freq.    3114.80  E(vib)   ...       0.00
freq.    3129.46  E(vib)   ...       0.00
freq.    3177.38  E(vib)   ...       0.00
freq.    3187.65  E(vib)   ...       0.00
freq.    3228.34  E(vib)   ...       0.00
freq.    3230.35  E(vib)   ...       0.00
freq.    3787.79  E(vib)   ...       0.00
freq.    3817.14  E(vib)   ...       0.00

------------
INNER ENERGY
------------

The inner energy is: U= E(el) + E(ZPE) + E(vib) + E(rot) + E(trans)
    E(el)   - is the total energy from the electronic structure calculation
              = E(kin-el) + E(nuc-el) + E(el-el) + E(nuc-nuc)
    E(ZPE)  - the the zero temperature vibrational energy from the frequency calculation
    E(vib)  - the the finite temperature correction to E(ZPE) due to population
              of excited vibrational states
    E(rot)  - is the rotational thermal energy
    E(trans)- is the translational thermal energy

Summary of contributions to the inner energy U:
Electronic energy                ...   -872.24343540 Eh
Zero point energy                ...      0.19105019 Eh     119.89 kcal/mol
Thermal vibrational correction   ...      0.01474760 Eh       9.25 kcal/mol
Thermal rotational correction    ...      0.00141627 Eh       0.89 kcal/mol
Thermal translational correction ...      0.00141627 Eh       0.89 kcal/mol
-----------------------------------------------------------------------
Total thermal energy                   -872.03480506 Eh

Summary of corrections to the electronic energy:
(perhaps to be used in another calculation)
Total thermal correction                  0.01758015 Eh      11.03 kcal/mol
Non-thermal (ZPE) correction              0.19105019 Eh     119.89 kcal/mol
-----------------------------------------------------------------------
Total correction                          0.20863034 Eh     130.92 kcal/mol

--------
ENTHALPY
--------

The enthalpy is H = U + kB*T
                kB is Boltzmann's constant
Total free energy                 ...   -872.03480506 Eh
Thermal Enthalpy correction       ...      0.00094421 Eh       0.59 kcal/mol
-----------------------------------------------------------------------
Total Enthalpy                    ...   -872.03386086 Eh

Note: Only C1 symmetry has been detected, increase convergence thresholds
      if your molecule has a higher symmetry. Symmetry factor of 1.0 is
      used for the rotational entropy correction.

Note: Rotational entropy computed according to Herzberg
Infrared and Raman Spectra, Chapter V,1, Van Nostrand Reinhold, 1945
Point Group:  C1, Symmetry Number:   1
Rotational constants in cm-1:     0.020831     0.008558     0.006732

Vibrational entropy computed according to the QRRHO of S. Grimme
Chem.Eur.J. 2012 18 9955

-------
ENTROPY
-------

The entropy contributions are T*S = T*(S(el)+S(vib)+S(rot)+S(trans))
     S(el)   - electronic entropy
     S(vib)  - vibrational entropy
     S(rot)  - rotational entropy
     S(trans)- translational entropy
The entropies will be listed as multiplied by the temperature to get
units of energy

                             ****ORCA TERMINATED NORMALLY****
TOTAL RUN TIME: 0 days 0 hours 30 minutes 13 seconds 340 msec
