                         Program Version 5.0.4 -  RELEASE  -
|  1> !  opt B3LYP def2-TZVP CPCM D3
|  2> %pal nprocs 102 end
|  3> %cpcm epsilon 78.4 end
|  4> *xyz 0 1
|  5> C   0.60892177 0.24294888 0.27192344
|  6> H   0.21285484 -0.01921318 1.26000176
|  7> N   0.82951196 -2.12598072 -0.21564397
|  8> O   0.57958203 -2.44157941 0.97500738
|  9> O   1.06986073 -3.0665164 -1.02037215
| 10> H   1.2481524 1.83194817 -1.00699221
| 11> C   0.86320055 -0.85638004 -0.62635847
| 12> H   1.08765014 -0.65448663 -1.66981672
| 13> H   3.01710459 -0.31394005 -0.73659171
| 14> C   0.84284375 1.518234 -0.06023569
| 15> H   0.65256424 2.34737283 0.59941491
| 16> C   6.86564596 1.37220403 -0.18213856
| 17> C   7.87416135 2.333479 -0.05291529
| 18> C   7.5122095 3.68560172 -0.03265011
| 19> C   6.1705151 4.04351902 -0.13559629
| 20> C   5.20019827 3.05142234 -0.26449378
| 21> N   5.56294351 1.74217915 -0.28873816
| 22> H   7.09342348 0.291086 -0.19994661
| 23> H   5.86988685 5.09780718 -0.11825336
| 24> H   4.12561187 3.29001231 -0.34978271
| 25> C   9.28816106 1.90439755 0.0446052
| 26> H   9.96710696 2.72153397 0.33588628
| 27> H   9.66293148 1.51611079 -0.92030559
| 28> H   9.43753578 1.09670789 0.78240966
| 29> H   8.28234044 4.4588941 0.06354666
| 30> H   4.27678763 -1.02230335 -0.22313313
| 31> O   3.98162617 -0.34853317 -0.86060971
| 32> H   4.81986608 0.99378559 -0.40893859
| 33> *
| 34>
| 35>                          ****END OF INPUT****
 Total Charge           Charge          ....    0
 Multiplicity           Mult            ....    1
 Number of Electrons    NEL             ....  106
Dispersion correction           -0.042529175
FINAL SINGLE POINT ENERGY      -686.386105932980
Dispersion correction            ... done
Dispersion correction           -0.042663919
FINAL SINGLE POINT ENERGY      -686.391761913777
Dispersion correction            ... done
Dispersion correction           -0.042707183
FINAL SINGLE POINT ENERGY      -686.392916544393
Dispersion correction            ... done
FINAL SINGLE POINT ENERGY      -686.393492752375
FINAL SINGLE POINT ENERGY      -686.393806504685
FINAL SINGLE POINT ENERGY      -686.394150986423
FINAL SINGLE POINT ENERGY      -686.394595520079
FINAL SINGLE POINT ENERGY      -686.394961716177
FINAL SINGLE POINT ENERGY      -686.394990511763
FINAL SINGLE POINT ENERGY      -686.394805633227
FINAL SINGLE POINT ENERGY      -686.396791023278
FINAL SINGLE POINT ENERGY      -686.396827340254
FINAL SINGLE POINT ENERGY      -686.396830309201
FINAL SINGLE POINT ENERGY      -686.396839967845
FINAL SINGLE POINT ENERGY      -686.396844373644
FINAL SINGLE POINT ENERGY      -686.396849181486
FINAL SINGLE POINT ENERGY      -686.396855151560
Dispersion correction            ... done
Dispersion correction           -0.044169265
FINAL SINGLE POINT ENERGY      -686.396858127792
Dispersion correction            ... done
Dispersion correction           -0.044172232
FINAL SINGLE POINT ENERGY      -686.396859738065
Dispersion correction            ... done
                    ***********************HURRAY********************

CARTESIAN COORDINATES (ANGSTROEM)
---------------------------------
  C      2.416098   -0.184429   -2.518394
  H      1.854660   -0.814427   -1.837483
  N      3.562490   -2.191005   -3.287013
  O      2.904597   -2.931282   -2.483192
  O      4.419706   -2.731156   -4.068184
  H      2.698521    1.809068   -3.209668
  C      3.389306   -0.854972   -3.318897
  H      3.975177   -0.342990   -4.067286
  H      4.906353   -0.571827   -1.827576
  C      2.164112    1.138786   -2.545089
  H      1.405393    1.573774   -1.908201
  C      6.129015    1.809657    1.536407
  C      5.928999    2.870552    2.402618
  C      4.784341    3.647794    2.202359
  C      3.897064    3.361885    1.173511
  C      4.156943    2.290887    0.343113
  N      5.256202    1.554665    0.550760
  H      6.977622    1.144446    1.608072
  H      3.010405    3.958105    1.015466
  H      3.522092    1.989006   -0.478712
  C      6.911193    3.168499    3.494658
  H      6.393284    3.467241    4.406276
  H      7.564599    3.993656    3.200560
  H      7.535935    2.302262    3.707815
  H      4.589819    4.482635    2.864104
  H      5.585426   -1.431171   -0.742389
  O      5.629743   -0.565406   -1.169593
  H      5.434102    0.746060   -0.084760

 Multiplicity           Mult            ....    1
 Number of Electrons    NEL             ....  106
 Basis Dimension        Dim             ....  518

ORBITAL ENERGIES
----------------

  NO   OCC          E(Eh)            E(eV)
   0   2.0000     -19.140695      -520.8448
   1   2.0000     -19.090790      -519.4868
   2   2.0000     -19.089073      -519.4401
   3   2.0000     -14.484485      -394.1429
   4   2.0000     -14.411962      -392.1694
   5   2.0000     -10.249222      -278.8955
   6   2.0000     -10.248733      -278.8822
   7   2.0000     -10.220005      -278.1005
   8   2.0000     -10.216892      -278.0158
   9   2.0000     -10.209150      -277.8051
  10   2.0000     -10.174988      -276.8755
  11   2.0000     -10.174415      -276.8599
  12   2.0000     -10.170868      -276.7634
  13   2.0000     -10.148630      -276.1583
  14   2.0000      -1.142986       -31.1022
  15   2.0000      -1.028195       -27.9786
  16   2.0000      -1.018433       -27.7130
  17   2.0000      -0.965707       -26.2782
  18   2.0000      -0.854585       -23.2544
  19   2.0000      -0.816710       -22.2238
  20   2.0000      -0.813047       -22.1241
  21   2.0000      -0.740154       -20.1406
  22   2.0000      -0.729879       -19.8610
  23   2.0000      -0.679590       -18.4926
  24   2.0000      -0.651705       -17.7338
  25   2.0000      -0.598225       -16.2785
  26   2.0000      -0.589892       -16.0518
  27   2.0000      -0.542914       -14.7734
  28   2.0000      -0.535000       -14.5581
  29   2.0000      -0.533283       -14.5114
  30   2.0000      -0.515641       -14.0313
  31   2.0000      -0.500841       -13.6286
  32   2.0000      -0.479019       -13.0348
  33   2.0000      -0.475655       -12.9432
  34   2.0000      -0.472274       -12.8512
  35   2.0000      -0.463921       -12.6239
  36   2.0000      -0.454661       -12.3719
  37   2.0000      -0.421178       -11.4608
  38   2.0000      -0.416836       -11.3427
  39   2.0000      -0.415550       -11.3077
  40   2.0000      -0.411855       -11.2071
  41   2.0000      -0.408144       -11.1062
  42   2.0000      -0.388341       -10.5673
  43   2.0000      -0.380741       -10.3605
  44   2.0000      -0.349194        -9.5021
  45   2.0000      -0.334595        -9.1048
  46   2.0000      -0.326296        -8.8790
  47   2.0000      -0.301350        -8.2002
  48   2.0000      -0.291725        -7.9382
  49   2.0000      -0.276677        -7.5288
  50   2.0000      -0.266181        -7.2432
  51   2.0000      -0.241693        -6.5768
  52   2.0000      -0.185820        -5.0564
  53   0.0000      -0.079855        -2.1730
  54   0.0000      -0.045117        -1.2277
  55   0.0000      -0.031626        -0.8606
  56   0.0000       0.027530         0.7491
  57   0.0000       0.052705         1.4342

MULLIKEN ATOMIC CHARGES
-----------------------
   0 C :   -0.075803
   1 H :    0.124768
   2 N :    0.416958
   3 O :   -0.560783
   4 O :   -0.570421
   5 H :    0.129594
   6 C :   -0.333764
   7 H :    0.147645
   8 H :    0.384768
   9 C :   -0.414080
  10 H :    0.140643
  11 C :   -0.024350
  12 C :    0.105306
  13 C :   -0.121962
  14 C :   -0.115890
  15 C :   -0.001564
  16 N :   -0.086640
  17 H :    0.200505
  18 H :    0.179010
  19 H :    0.237227
  20 C :   -0.365297
  21 H :    0.148194
  22 H :    0.150695
  23 H :    0.145730
  24 H :    0.176248
  25 H :    0.373496
  26 O :   -0.691508
  27 H :    0.301275
Sum of atomic charges:   -0.0000000

LOEWDIN ATOMIC CHARGES
----------------------
   0 C :   -0.251224
   1 H :    0.145093
   2 N :   -0.069174
   3 O :   -0.273555
   4 O :   -0.286752
   5 H :    0.118421
   6 C :   -0.320659
   7 H :    0.135417
   8 H :    0.164183
   9 C :   -0.270635
  10 H :    0.118749
  11 C :   -0.078464
  12 C :   -0.145470
  13 C :   -0.030546
  14 C :   -0.099996
  15 C :   -0.109219
  16 N :    0.274082
  17 H :    0.168124
  18 H :    0.167693
  19 H :    0.158905
  20 C :   -0.230413
  21 H :    0.139798
  22 H :    0.142893
  23 H :    0.137954
  24 H :    0.169279
  25 H :    0.182750
  26 O :   -0.266587
  27 H :    0.209356

  Mayer bond orders larger than 0.100000
B(  0-C ,  1-H ) :   0.9426 B(  0-C ,  6-C ) :   1.1537 B(  0-C ,  9-C ) :   1.7074
B(  2-N ,  3-O ) :   1.3667 B(  2-N ,  4-O ) :   1.3107 B(  2-N ,  6-C ) :   1.3816
B(  4-O ,  6-C ) :   0.1372 B(  5-H ,  9-C ) :   0.9721 B(  6-C ,  7-H ) :   0.9566
B(  8-H , 26-O ) :   0.8314 B(  9-C , 10-H ) :   0.9759 B( 11-C , 12-C ) :   1.4338
B( 11-C , 16-N ) :   1.3174 B( 11-C , 17-H ) :   0.9318 B( 12-C , 13-C ) :   1.3448
B( 12-C , 20-C ) :   0.9318 B( 13-C , 14-C ) :   1.4195 B( 13-C , 24-H ) :   0.9524
B( 14-C , 15-C ) :   1.4410 B( 14-C , 18-H ) :   0.9538 B( 15-C , 16-N ) :   1.3149
B( 15-C , 19-H ) :   0.9051 B( 16-N , 27-H ) :   0.8021 B( 20-C , 21-H ) :   0.9702
B( 20-C , 22-H ) :   0.9453 B( 20-C , 23-H ) :   0.9793 B( 25-H , 26-O ) :   0.8662
B( 26-O , 27-H ) :   0.1236

Dispersion correction           -0.044182295
FINAL SINGLE POINT ENERGY      -686.396861463142

DIPOLE MOMENT
-------------
                                X             Y             Z
Electronic contribution:     -0.99472      -5.14494      -3.31518
Nuclear contribution   :      3.45606      12.77275      10.73173
                        -----------------------------------------
Total Dipole Moment    :      2.46135       7.62781       7.41654
                        -----------------------------------------
Magnitude (a.u.)       :     10.92002
Magnitude (Debye)      :     27.75649

Rotational constants in cm-1:     0.045733     0.007452     0.006680
Rotational constants in MHz :  1371.036817   223.404657   200.250686

                             ****ORCA TERMINATED NORMALLY****
TOTAL RUN TIME: 0 days 1 hours 4 minutes 49 seconds 531 msec
