                         Program Version 5.0.4 -  RELEASE  -
|  1> !  opt B3LYP def2-TZVP CPCM D3
|  2> %pal nprocs 102 end
|  3> %cpcm epsilon 78.4 end
|  4> *xyz 0 1
|  5> C   -0.10189 0.0519 0.14134
|  6> H   -1.14386 0.17402 0.44525
|  7> N   -0.2272 -2.37867 0.18199
|  8> O   -1.41804 -2.5711 0.3582
|  9> O   0.62529 -3.12396 0.64517
| 10> H   1.87775 0.85951 0.10187
| 11> C   0.20305 -1.20609 -0.61092
| 12> H   -0.34017 -1.21506 -1.59621
| 13> H   1.29163 -1.30062 -0.86766
| 14> C   0.83768 0.9621 0.38844
| 15> H   0.64114 1.89565 0.90081
| 16> C   6.5396 -2.73916 0.25285
| 17> C   7.91656 -2.73222 -0.02148
| 18> C   8.52901 -1.50219 -0.27685
| 19> C   7.76531 -0.33872 -0.24515
| 20> C   6.40015 -0.43313 0.05046
| 21> N   5.7989 -1.61513 0.28781
| 22> H   5.99752 -3.67465 0.44714
| 23> H   8.21705 0.63148 -0.44864
| 24> H   5.76067 0.45737 0.09949
| 25> C   8.68107 -4.00249 -0.06315
| 26> H   9.74894 -3.86665 0.16885
| 27> H   8.63196 -4.46016 -1.06673
| 28> H   8.29856 -4.75428 0.64447
| 29> H   9.59758 -1.45501 -0.50037
| 30> H   2.51964 -2.99355 -0.23081
| 31> O   3.17164 -2.66951 -0.85693
| 32> H   3.88518 -2.30811 -0.31179
| 33> *
| 34>
| 35>                          ****END OF INPUT****
 Total Charge           Charge          ....    0
 Multiplicity           Mult            ....    1
 Number of Electrons    NEL             ....  106
 Basis Dimension        Dim             ....  518

ORBITAL ENERGIES
----------------

  NO   OCC          E(Eh)            E(eV)
   0   2.0000     -19.177824      -521.8551
   1   2.0000     -19.176410      -521.8166
   2   2.0000     -19.110223      -520.0156
   3   2.0000     -14.563927      -396.3046
   4   2.0000     -14.323605      -389.7651
   5   2.0000     -10.235270      -278.5159
   6   2.0000     -10.210258      -277.8353
   7   2.0000     -10.209464      -277.8136
   8   2.0000     -10.194168      -277.3974
   9   2.0000     -10.192300      -277.3466
  10   2.0000     -10.189179      -277.2617
  11   2.0000     -10.183953      -277.1195
  12   2.0000     -10.177693      -276.9491
  13   2.0000     -10.165698      -276.6227
  14   2.0000      -1.251269       -34.0488
  15   2.0000      -1.072711       -29.1899
  16   2.0000      -0.997754       -27.1503
  17   2.0000      -0.943113       -25.6634
  18   2.0000      -0.847102       -23.0508
  19   2.0000      -0.815963       -22.2035
  20   2.0000      -0.775088       -21.0912
  21   2.0000      -0.759728       -20.6732
  22   2.0000      -0.696868       -18.9628
  23   2.0000      -0.635291       -17.2872
  24   2.0000      -0.630205       -17.1488
  25   2.0000      -0.606264       -16.4973
  26   2.0000      -0.589190       -16.0327
  27   2.0000      -0.560999       -15.2655
  28   2.0000      -0.546235       -14.8638
  29   2.0000      -0.533130       -14.5072
  30   2.0000      -0.523688       -14.2503
  31   2.0000      -0.513248       -13.9662
  32   2.0000      -0.491918       -13.3858
  33   2.0000      -0.471722       -12.8362
  34   2.0000      -0.456433       -12.4202
  35   2.0000      -0.441773       -12.0213
  36   2.0000      -0.427020       -11.6198
  37   2.0000      -0.419109       -11.4045
  38   2.0000      -0.404972       -11.0198
  39   2.0000      -0.403661       -10.9842
  40   2.0000      -0.387669       -10.5490
  41   2.0000      -0.386913       -10.5284
  42   2.0000      -0.381893       -10.3918
  43   2.0000      -0.368114       -10.0169
  44   2.0000      -0.359457        -9.7813
  45   2.0000      -0.337659        -9.1882
  46   2.0000      -0.336497        -9.1565
  47   2.0000      -0.313977        -8.5437
  48   2.0000      -0.305363        -8.3093
  49   2.0000      -0.290688        -7.9100
  50   2.0000      -0.281256        -7.6534
  51   2.0000      -0.271324        -7.3831
  52   2.0000      -0.258324        -7.0293
  53   0.0000      -0.090040        -2.4501
  54   0.0000      -0.038716        -1.0535
  55   0.0000      -0.022465        -0.6113
  56   0.0000      -0.012476        -0.3395
  57   0.0000       0.039852         1.0844

MULLIKEN ATOMIC CHARGES
-----------------------
   0 C :   -0.154952
   1 H :    0.155870
   2 N :    0.471548
   3 O :   -0.339816
   4 O :   -0.372117
   5 H :    0.156515
   6 C :   -0.129151
   7 H :    0.175281
   8 H :    0.170779
   9 C :   -0.293869
  10 H :    0.150900
  11 C :   -0.048404
  12 C :    0.115996
  13 C :   -0.176359
  14 C :   -0.121835
  15 C :   -0.045910
  16 N :   -0.339585
  17 H :    0.151096
  18 H :    0.152388
  19 H :    0.154871
  20 C :   -0.380702
  21 H :    0.136822
  22 H :    0.138166
  23 H :    0.137266
  24 H :    0.155826
  25 H :    0.345207
  26 O :   -0.703050
  27 H :    0.337218
Sum of atomic charges:   -0.0000000

LOEWDIN ATOMIC CHARGES
----------------------
   0 C :   -0.204211
   1 H :    0.150879
   2 N :   -0.039715
   3 O :   -0.038935
   4 O :   -0.050244
   5 H :    0.131057
   6 C :   -0.221219
   7 H :    0.170337
   8 H :    0.156378
   9 C :   -0.178182
  10 H :    0.130181
  11 C :   -0.178274
  12 C :   -0.178216
  13 C :   -0.087301
  14 C :   -0.142659
  15 C :   -0.210692
  16 N :    0.080768
  17 H :    0.146728
  18 H :    0.154517
  19 H :    0.143789
  20 C :   -0.255210
  21 H :    0.134508
  22 H :    0.138584
  23 H :    0.135195
  24 H :    0.159137
  25 H :    0.142074
  26 O :   -0.332085
  27 H :    0.142807

  Mayer bond orders larger than 0.100000
B(  0-C ,  1-H ) :   0.9435 B(  0-C ,  6-C ) :   0.9531 B(  0-C ,  9-C ) :   1.9089
B(  2-N ,  3-O ) :   1.6121 B(  2-N ,  4-O ) :   1.5429 B(  2-N ,  6-C ) :   0.8765
B(  3-O ,  4-O ) :   0.2134 B(  5-H ,  9-C ) :   0.9578 B(  6-C ,  7-H ) :   0.9250
B(  6-C ,  8-H ) :   0.9445 B(  9-C , 10-H ) :   0.9613 B( 11-C , 12-C ) :   1.3830
B( 11-C , 16-N ) :   1.3928 B( 11-C , 17-H ) :   0.9558 B( 12-C , 13-C ) :   1.3796
B( 12-C , 20-C ) :   0.9351 B( 13-C , 14-C ) :   1.4330 B( 13-C , 24-H ) :   0.9593
B( 14-C , 15-C ) :   1.4041 B( 14-C , 18-H ) :   0.9575 B( 15-C , 16-N ) :   1.4319
B( 15-C , 19-H ) :   0.9600 B( 20-C , 21-H ) :   0.9802 B( 20-C , 22-H ) :   0.9452
B( 20-C , 23-H ) :   0.9771 B( 25-H , 26-O ) :   0.8698 B( 26-O , 27-H ) :   0.8441

Dispersion correction           -0.041235662
FINAL SINGLE POINT ENERGY      -686.396487151735
Dispersion correction            ... done
Dispersion correction           -0.041425555
FINAL SINGLE POINT ENERGY      -686.401400256150
Dispersion correction            ... done
Dispersion correction           -0.041559561
FINAL SINGLE POINT ENERGY      -686.402762780065
Dispersion correction            ... done
FINAL SINGLE POINT ENERGY      -686.403420243483
FINAL SINGLE POINT ENERGY      -686.403714607659
FINAL SINGLE POINT ENERGY      -686.403985072619
FINAL SINGLE POINT ENERGY      -686.404311201592
FINAL SINGLE POINT ENERGY      -686.404668789053
FINAL SINGLE POINT ENERGY      -686.405059466193
FINAL SINGLE POINT ENERGY      -686.405414828557
FINAL SINGLE POINT ENERGY      -686.407177206908
FINAL SINGLE POINT ENERGY      -686.407195477343
FINAL SINGLE POINT ENERGY      -686.407209794097
FINAL SINGLE POINT ENERGY      -686.407225854042
FINAL SINGLE POINT ENERGY      -686.407241089638
FINAL SINGLE POINT ENERGY      -686.407223007301
FINAL SINGLE POINT ENERGY      -686.407201249618
Dispersion correction           -0.043842470
FINAL SINGLE POINT ENERGY      -686.407230618673
Dispersion correction            ... done
Dispersion correction           -0.043820459
FINAL SINGLE POINT ENERGY      -686.407287428665
Dispersion correction            ... done

CARTESIAN COORDINATES (ANGSTROEM)
---------------------------------
  C      1.124524    0.172293   -0.273734
  H      0.700374    0.953783    0.347307
  N      0.042678   -1.713558    0.870207
  O     -0.776936   -1.212232    1.616858
  O      0.706966   -2.703995    1.150420
  H      2.746742   -0.464947   -1.461870
  C      0.274561   -1.043466   -0.470310
  H     -0.721749   -0.791537   -0.831085
  H      0.740154   -1.787710   -1.106512
  C      2.316949    0.311222   -0.838615
  H      2.905228    1.209157   -0.698415
  C      6.370401   -2.954952   -0.410126
  C      7.634181   -2.466817   -0.082912
  C      7.684788   -1.226493    0.552476
  C      6.506570   -0.549077    0.834165
  C      5.298516   -1.127759    0.470297
  N      5.230863   -2.310245   -0.145901
  H      6.274792   -3.913109   -0.911152
  H      6.523424    0.412616    1.329114
  H      4.355744   -0.636796    0.678252
  C      8.876048   -3.251650   -0.395688
  H      9.388195   -3.544687    0.523748
  H      9.578690   -2.656877   -0.982779
  H      8.637560   -4.156096   -0.955153
  H      8.640125   -0.794125    0.825383
  H      2.190205   -3.329901   -0.143088
  O      2.807752   -3.604936   -0.835159
  H      3.647376   -3.126536   -0.638276

Dispersion correction           -0.044087405
FINAL SINGLE POINT ENERGY      -686.407382252058
Dispersion correction            ... done

DIPOLE MOMENT
-------------
                                X             Y             Z
Electronic contribution:     -9.14517      -0.24465       5.36838
Nuclear contribution   :     12.40244       1.71372      -5.73161
                        -----------------------------------------
Total Dipole Moment    :      3.25727       1.46907      -0.36324
                        -----------------------------------------
Magnitude (a.u.)       :      3.59165
Magnitude (Debye)      :      9.12924

Rotational constants in cm-1:     0.043420     0.007718     0.007185
Rotational constants in MHz :  1301.705103   231.378789   215.387554

                             ****ORCA TERMINATED NORMALLY****
TOTAL RUN TIME: 0 days 1 hours 26 minutes 33 seconds 344 msec
