                         Program Version 5.0.4 -  RELEASE  -
|  1> !  NUMFREQ B3LYP def2-TZVP CPCM D3
|  2> %pal nprocs 102 end
|  3> %cpcm epsilon 78.4 end
|  4> *xyz 0 1
|  5> C   2.2459143605291 -0.6917237124 0.81406654452318
|  6> H   2.50254840132606 -0.84852373498363 -0.22582339087263
|  7> N   0.55342164920569 -2.529330115877 1.0042583161667
|  8> O   -0.02484607553472 -1.98556669957876 0.08172826733113
|  9> O   0.19417104583317 -3.57646964058431 1.51976836297487
| 10> H   2.14044729261393 0.67535575854788 2.41545983643294
| 11> C   1.79943843668455 -1.88550135492171 1.5796894732199
| 12> H   2.53569789456775 -2.68666549413635 1.58498028077831 M = 2
| 13> H   1.53876804131483 -1.65155425159928 2.61155501698224
| 14> C   2.3854420574779 0.50316305789224 1.37324543144147
| 15> H   2.75904111562136 1.35106335806038 0.81289925065465
| 16> C   5.50048822082177 -2.56960869927695 1.15738763548311
| 17> C   6.44246185263908 -1.63733253875818 1.570540535812
| 18> C   6.77181688203383 -0.59768200689665 0.7087544724618
| 19> C   6.14830492756919 -0.53064012170912 -0.52988983823877
| 20> C   5.2151924005835 -1.50665741400827 -0.85610084447416
| 21> N   4.89477484481015 -2.50712789459305 -0.03171424199315
| 22> H   5.2156592511839 -3.39154901715969 1.80435915219608
| 23> H   6.90428370476733 -1.7264123292279 2.54454542697558
| 24> H   6.37153074770736 0.26032173681673 -1.23307643031451
| 25> H   4.69933941346683 -1.48514432073477 -1.8092977385963
| 26> H   7.50099251423196 0.14854597821775 0.99788650108465
| 27> H   2.52188390269255 -4.74691949182633 -0.20733429483414
| 28> H   3.48543674478261 -3.56635808903051 -0.52324150498918
| 29> O   2.69206037306994 -4.05228296223238 -0.85890622020584
| 30> *
| 31>
| 32>                          ****END OF INPUT****

CARTESIAN COORDINATES (ANGSTROEM)
---------------------------------
  C      2.245914   -0.691724    0.814067
  H      2.502548   -0.848524   -0.225823
  N      0.553422   -2.529330    1.004258
  O     -0.024846   -1.985567    0.081728
  O      0.194171   -3.576470    1.519768
  H      2.140447    0.675356    2.415460
  C      1.799438   -1.885501    1.579689
  H      2.535698   -2.686665    1.584980
  H      1.538768   -1.651554    2.611555
  C      2.385442    0.503163    1.373245
  H      2.759041    1.351063    0.812899
  C      5.500488   -2.569609    1.157388
  C      6.442462   -1.637333    1.570541
  C      6.771817   -0.597682    0.708754
  C      6.148305   -0.530640   -0.529890
  C      5.215192   -1.506657   -0.856101
  N      4.894775   -2.507128   -0.031714
  H      5.215659   -3.391549    1.804359
  H      6.904284   -1.726412    2.544545
  H      6.371531    0.260322   -1.233076
  H      4.699339   -1.485144   -1.809298
  H      7.500993    0.148546    0.997887
  H      2.521884   -4.746919   -0.207334
  H      3.485437   -3.566358   -0.523242
  O      2.692060   -4.052283   -0.858906

 Total Charge           Charge          ....    0
 Multiplicity           Mult            ....    1
 Number of Electrons    NEL             ....   98
 Basis Dimension        Dim             ....  475

ORBITAL ENERGIES
----------------

  NO   OCC          E(Eh)            E(eV)
   0   2.0000     -19.172491      -521.7100
   1   2.0000     -19.168381      -521.5982
   2   2.0000     -19.102118      -519.7951
   3   2.0000     -14.555567      -396.0771
   4   2.0000     -14.328032      -389.8856
   5   2.0000     -10.228420      -278.3294
   6   2.0000     -10.213334      -277.9189
   7   2.0000     -10.213110      -277.9129
   8   2.0000     -10.194222      -277.3989
   9   2.0000     -10.184916      -277.1457
  10   2.0000     -10.184670      -277.1390
  11   2.0000     -10.184296      -277.1288
  12   2.0000     -10.173446      -276.8336
  13   2.0000      -1.242151       -33.8006
  14   2.0000      -1.068895       -29.0861
  15   2.0000      -0.984198       -26.7814
  16   2.0000      -0.955670       -26.0051
  17   2.0000      -0.836982       -22.7754
  18   2.0000      -0.810809       -22.0632
  19   2.0000      -0.770202       -20.9583
  20   2.0000      -0.754270       -20.5247
  21   2.0000      -0.638681       -17.3794
  22   2.0000      -0.633828       -17.2473
  23   2.0000      -0.631252       -17.1772
  24   2.0000      -0.576868       -15.6974
  25   2.0000      -0.555177       -15.1071
  26   2.0000      -0.544410       -14.8142
  27   2.0000      -0.539125       -14.6703
  28   2.0000      -0.527847       -14.3634
  29   2.0000      -0.505552       -13.7568
  30   2.0000      -0.490286       -13.3414
  31   2.0000      -0.473645       -12.8885
  32   2.0000      -0.470730       -12.8092
  33   2.0000      -0.441907       -12.0249
  34   2.0000      -0.435289       -11.8448
  35   2.0000      -0.413343       -11.2476
  36   2.0000      -0.411247       -11.1906
  37   2.0000      -0.403934       -10.9916
  38   2.0000      -0.374749       -10.1975
  39   2.0000      -0.370360       -10.0780
  40   2.0000      -0.366461        -9.9719
  41   2.0000      -0.330918        -9.0047
  42   2.0000      -0.323861        -8.8127
  43   2.0000      -0.312158        -8.4942
  44   2.0000      -0.303032        -8.2459
  45   2.0000      -0.296873        -8.0783
  46   2.0000      -0.280276        -7.6267
  47   2.0000      -0.278237        -7.5712
  48   2.0000      -0.273017        -7.4292
  49   0.0000      -0.078882        -2.1465
  50   0.0000      -0.042231        -1.1492
  51   0.0000      -0.026085        -0.7098
  52   0.0000      -0.011247        -0.3060
  53   0.0000       0.037257         1.0138

MULLIKEN ATOMIC CHARGES
-----------------------
   0 C :   -0.104983
   1 H :    0.139928
   2 N :    0.449199
   3 O :   -0.343457
   4 O :   -0.357891
   5 H :    0.146627
   6 C :   -0.146495
   7 H :    0.163479
   8 H :    0.175409
   9 C :   -0.295691
  10 H :    0.148230
  11 C :   -0.011603
  12 C :   -0.128119
  13 C :   -0.109627
  14 C :   -0.125676
  15 C :   -0.018547
  16 N :   -0.322756
  17 H :    0.156488
  18 H :    0.154779
  19 H :    0.154727
  20 H :    0.156659
  21 H :    0.161395
  22 H :    0.344115
  23 H :    0.340527
  24 O :   -0.726716
Sum of atomic charges:   -0.0000000

LOEWDIN ATOMIC CHARGES
----------------------
   0 C :   -0.209848
   1 H :    0.147566
   2 N :   -0.048861
   3 O :   -0.040509
   4 O :   -0.060478
   5 H :    0.130758
   6 C :   -0.210169
   7 H :    0.152602
   8 H :    0.162512
   9 C :   -0.181492
  10 H :    0.130254
  11 C :   -0.198711
  12 C :   -0.136191
  13 C :   -0.104214
  14 C :   -0.136234
  15 C :   -0.198593
  16 N :    0.110857
  17 H :    0.145216
  18 H :    0.155151
  19 H :    0.155250
  20 H :    0.145481
  21 H :    0.156326
  22 H :    0.161235
  23 H :    0.134924
  24 O :   -0.362831

  Mayer bond orders larger than 0.100000
B(  0-C ,  1-H ) :   0.9403 B(  0-C ,  6-C ) :   0.9726 B(  0-C ,  9-C ) :   1.8971
B(  2-N ,  3-O ) :   1.6285 B(  2-N ,  4-O ) :   1.5918 B(  2-N ,  6-C ) :   0.8556
B(  3-O ,  4-O ) :   0.2165 B(  5-H ,  9-C ) :   0.9609 B(  6-C ,  7-H ) :   0.9499
B(  6-C ,  8-H ) :   0.9254 B(  9-C , 10-H ) :   0.9634 B( 11-C , 12-C ) :   1.4189
B( 11-C , 16-N ) :   1.3892 B( 11-C , 17-H ) :   0.9573 B( 12-C , 13-C ) :   1.4119
B( 12-C , 18-H ) :   0.9604 B( 13-C , 14-C ) :   1.4163 B( 13-C , 21-H ) :   0.9543
B( 14-C , 15-C ) :   1.4162 B( 14-C , 19-H ) :   0.9612 B( 15-C , 16-N ) :   1.3884
B( 15-C , 20-H ) :   0.9579 B( 16-N , 23-H ) :   0.1461 B( 22-H , 24-O ) :   0.8872
B( 23-H , 24-O ) :   0.8045

Dispersion correction           -0.041765697
FINAL SINGLE POINT ENERGY      -647.099103629036
Dispersion correction            ... done

DIPOLE MOMENT
-------------
                                X             Y             Z
Electronic contribution:     -5.41955      -3.68965       0.94923
Nuclear contribution   :      8.61926       5.49099       0.83436
                        -----------------------------------------
Total Dipole Moment    :      3.19971       1.80135       1.78358
                        -----------------------------------------
Magnitude (a.u.)       :      4.08217
Magnitude (Debye)      :     10.37606

VIBRATIONAL FREQUENCIES
-----------------------

Scaling factor for frequencies =  1.000000000 (already applied!)

   0:         0.00 cm**-1
   1:         0.00 cm**-1
   2:         0.00 cm**-1
   3:         0.00 cm**-1
   4:         0.00 cm**-1
   5:         0.00 cm**-1
   6:         3.99 cm**-1
   7:        24.65 cm**-1
   8:        25.15 cm**-1
   9:        37.07 cm**-1
  10:        54.26 cm**-1
  11:        58.85 cm**-1
  12:        70.52 cm**-1
  13:        72.55 cm**-1
  14:       111.93 cm**-1
  15:       127.40 cm**-1
  16:       174.03 cm**-1
  17:       265.80 cm**-1
  18:       273.10 cm**-1
  19:       389.74 cm**-1
  20:       390.39 cm**-1
  21:       416.44 cm**-1
  22:       483.13 cm**-1
  23:       508.53 cm**-1
  24:       546.41 cm**-1
  25:       596.94 cm**-1
  26:       633.77 cm**-1
  27:       667.90 cm**-1
  28:       711.82 cm**-1
  29:       717.14 cm**-1
  30:       755.17 cm**-1
  31:       786.38 cm**-1
  32:       862.21 cm**-1
  33:       900.85 cm**-1
  34:       902.10 cm**-1
  35:       935.84 cm**-1
  36:       970.53 cm**-1
  37:       982.31 cm**-1
  38:      1013.10 cm**-1
  39:      1026.28 cm**-1
  40:      1027.43 cm**-1
  41:      1033.80 cm**-1
  42:      1037.46 cm**-1
  43:      1055.46 cm**-1
  44:      1085.00 cm**-1
  45:      1093.29 cm**-1
  46:      1170.66 cm**-1
  47:      1185.28 cm**-1
  48:      1233.45 cm**-1
  49:      1284.69 cm**-1
  50:      1289.35 cm**-1
  51:      1306.29 cm**-1
  52:      1328.07 cm**-1
  53:      1389.77 cm**-1
  54:      1418.26 cm**-1
  55:      1459.26 cm**-1
  56:      1475.89 cm**-1
  57:      1519.68 cm**-1
  58:      1563.10 cm**-1
  59:      1616.56 cm**-1
  60:      1632.36 cm**-1
  61:      1646.10 cm**-1
  62:      1707.43 cm**-1
  63:      2299.10 cm**-1
  64:      3110.91 cm**-1
  65:      3134.84 cm**-1
  66:      3165.55 cm**-1
  67:      3167.86 cm**-1
  68:      3183.98 cm**-1
  69:      3186.61 cm**-1
  70:      3200.02 cm**-1
  71:      3205.61 cm**-1
  72:      3220.72 cm**-1
  73:      3287.21 cm**-1
  74:      3774.31 cm**-1

IR SPECTRUM
-----------

 Mode   freq       eps      Int      T**2         TX        TY        TZ
       cm**-1   L/(mol*cm) km/mol    a.u.
----------------------------------------------------------------------------
  6:      3.99   0.000000    0.00  0.000000  ( 0.000000  0.000000  0.000000)
  7:     24.65   0.000273    1.38  0.003460  ( 0.037722 -0.034194 -0.029451)
  8:     25.15   0.000096    0.49  0.001195  (-0.018063  0.026584 -0.012713)
  9:     37.07   0.000090    0.45  0.000757  (-0.016730  0.015913  0.014947)
 10:     54.26   0.000255    1.29  0.001466  ( 0.030634  0.018987  0.012924)
 11:     58.85   0.000004    0.02  0.000020  ( 0.000472  0.002937  0.003301)
 12:     70.52   0.000196    0.99  0.000867  ( 0.026704 -0.007123 -0.010177)
 13:     72.55   0.000435    2.20  0.001872  ( 0.017677  0.038492  0.008833)
 14:    111.93   0.004062   20.53  0.011326  (-0.059784  0.041783  0.077497)
 15:    127.40   0.002377   12.01  0.005823  (-0.035082  0.056980  0.036679)
 16:    174.03   0.001796    9.08  0.003220  ( 0.050364  0.025972  0.003018)
 17:    265.80   0.003287   16.61  0.003859  (-0.007824  0.059752  0.015098)
 18:    273.10   0.037329  188.65  0.042654  (-0.127758  0.127784  0.100018)
 19:    389.74   0.000239    1.21  0.000192  (-0.012759 -0.005364  0.000059)
 20:    390.39   0.000223    1.13  0.000178  (-0.010054 -0.008755 -0.000804)
 21:    416.44   0.000754    3.81  0.000565  (-0.022876  0.003484  0.005411)
 22:    483.13   0.001874    9.47  0.001210  ( 0.029296  0.018461 -0.003346)
 23:    508.53   0.027374  138.34  0.016798  (-0.085462 -0.097283 -0.005532)
 24:    546.41   0.000113    0.57  0.000065  (-0.000135 -0.008041  0.000078)
 25:    596.94   0.004371   22.09  0.002285  (-0.006491  0.042551  0.020794)
 26:    633.77   0.003567   18.02  0.001756  ( 0.032118  0.025850  0.007513)
 27:    667.90   0.000083    0.42  0.000039  (-0.001987 -0.005451  0.002310)
 28:    711.82   0.013018   65.79  0.005707  ( 0.073598 -0.011923  0.012172)
 29:    717.14   0.021890  110.62  0.009525  (-0.066520  0.056802  0.043289)
 30:    755.17   0.022439  113.40  0.009272  (-0.054186  0.061357  0.050712)
 31:    786.38   0.008900   44.98  0.003532  ( 0.023183 -0.041605 -0.035544)
 32:    862.21   0.004893   24.73  0.001771  ( 0.031745  0.007259  0.026657)
 33:    900.85   0.000002    0.01  0.000001  ( 0.000713 -0.000193  0.000270)
 34:    902.10   0.002473   12.50  0.000855  (-0.017389 -0.023030 -0.004766)
 35:    935.84   0.000292    1.48  0.000098  ( 0.000460  0.009803 -0.001093)
 36:    970.53   0.000032    0.16  0.000010  (-0.002372  0.001758  0.001195)
 37:    982.31   0.015436   78.01  0.004904  (-0.067852  0.008306 -0.015198)
 38:   1013.10   0.000039    0.19  0.000012  (-0.001723  0.002030 -0.002187)
 39:   1026.28   0.003456   17.47  0.001051  (-0.004162  0.028788 -0.014311)
 40:   1027.43   0.004827   24.39  0.001466  ( 0.027233  0.025067  0.009807)
 41:   1033.80   0.000005    0.03  0.000002  ( 0.000415 -0.000823 -0.000882)
 42:   1037.46   0.005490   27.74  0.001651  ( 0.038124 -0.000110  0.014064)
 43:   1055.46   0.003384   17.10  0.001001  (-0.021351 -0.021262 -0.009623)
 44:   1085.00   0.000127    0.64  0.000036  ( 0.002524 -0.001375  0.005309)
 45:   1093.29   0.003461   17.49  0.000988  (-0.022403 -0.020484 -0.008148)
 46:   1170.66   0.001069    5.40  0.000285  (-0.001687  0.008202 -0.014655)
 47:   1185.28   0.002682   13.56  0.000706  ( 0.000337 -0.023556  0.012297)
 48:   1233.45   0.001827    9.23  0.000462  (-0.015902 -0.013472 -0.005269)
 49:   1284.69   0.008147   41.17  0.001979  ( 0.025593 -0.016963  0.032190)
 50:   1289.35   0.000428    2.17  0.000104  ( 0.002093 -0.004502  0.008892)
 51:   1306.29   0.002185   11.04  0.000522  ( 0.013193  0.018276 -0.003714)
 52:   1328.07   0.001127    5.69  0.000265  (-0.001891  0.012656 -0.010049)
 53:   1389.77   0.000248    1.25  0.000056  (-0.000610  0.003344 -0.006640)
 54:   1418.26   0.030550  154.39  0.006722  ( 0.063125  0.049710  0.016316)
 55:   1459.26   0.006719   33.96  0.001437  ( 0.012150  0.034430  0.010193)
 56:   1475.89   0.010414   52.63  0.002202  ( 0.004671 -0.022269  0.041039)
 57:   1519.68   0.000418    2.11  0.000086  ( 0.004883  0.006838  0.003910)
 58:   1563.10   0.133115  672.71  0.026576  (-0.016037  0.120649 -0.108454)
 59:   1616.56   0.000429    2.17  0.000083  ( 0.001239  0.004958 -0.007529)
 60:   1632.36   0.011932   60.30  0.002281  ( 0.032502  0.034071  0.007993)
 61:   1646.10   0.019178   96.92  0.003636  ( 0.023634 -0.016317  0.053019)
 62:   1707.43   0.000318    1.60  0.000058  ( 0.001155 -0.005168 -0.005477)
 63:   2299.10   0.000459    2.32  0.000062  ( 0.004115  0.006394 -0.002124)
 64:   3110.91   0.000765    3.87  0.000077  (-0.004624 -0.007442  0.000067)
 65:   3134.84   0.001105    5.58  0.000110  ( 0.000109  0.008161  0.006586)
 66:   3165.55   0.004647   23.48  0.000458  (-0.003349  0.009769 -0.018747)
 67:   3167.86   0.000280    1.42  0.000028  ( 0.003497  0.003313 -0.002097)
 68:   3183.98   0.000344    1.74  0.000034  ( 0.003521  0.004233  0.001834)
 69:   3186.61   0.000247    1.25  0.000024  (-0.002567  0.001344  0.003977)
 70:   3200.02   0.003323   16.79  0.000324  ( 0.002360 -0.008464  0.015712)
 71:   3205.61   0.002820   14.25  0.000275  ( 0.012250  0.010486  0.003811)
 72:   3220.72   0.001811    9.15  0.000175  ( 0.005365  0.004282 -0.011329)
 73:   3287.21   0.343950  1738.18  0.032652  (-0.139441 -0.106083 -0.044211)
 74:   3774.31   0.018780   94.91  0.001553  (-0.019340 -0.032332  0.011549)

--------------------------
THERMOCHEMISTRY AT 298.15K
--------------------------

Temperature         ... 298.15 K
Pressure            ... 1.00 atm
Total Mass          ... 185.19 AMU

Throughout the following assumptions are being made:
  (1) The electronic state is orbitally nondegenerate
  (2) There are no thermally accessible electronically excited states
  (3) Hindered rotations indicated by low frequency modes are not
      treated as such but are treated as vibrations and this may
      cause some error
  (4) All equations used are the standard statistical mechanics
      equations for an ideal gas
  (5) All vibrations are strictly harmonic

freq.       3.99  E(vib)   ...       0.59
freq.      24.65  E(vib)   ...       0.56
freq.      25.15  E(vib)   ...       0.56
freq.      37.07  E(vib)   ...       0.54
freq.      54.26  E(vib)   ...       0.52
freq.      58.85  E(vib)   ...       0.51
freq.      70.52  E(vib)   ...       0.50
freq.      72.55  E(vib)   ...       0.49
freq.     111.93  E(vib)   ...       0.45
freq.     127.40  E(vib)   ...       0.43
freq.     174.03  E(vib)   ...       0.38
freq.     265.80  E(vib)   ...       0.29
freq.     273.10  E(vib)   ...       0.29
freq.     389.74  E(vib)   ...       0.20
freq.     390.39  E(vib)   ...       0.20
freq.     416.44  E(vib)   ...       0.18
freq.     483.13  E(vib)   ...       0.15
freq.     508.53  E(vib)   ...       0.14
freq.     546.41  E(vib)   ...       0.12
freq.     596.94  E(vib)   ...       0.10
freq.     633.77  E(vib)   ...       0.09
freq.     667.90  E(vib)   ...       0.08
freq.     711.82  E(vib)   ...       0.07
freq.     717.14  E(vib)   ...       0.07
freq.     755.17  E(vib)   ...       0.06
freq.     786.38  E(vib)   ...       0.05
freq.     862.21  E(vib)   ...       0.04
freq.     900.85  E(vib)   ...       0.03
freq.     902.10  E(vib)   ...       0.03
freq.     935.84  E(vib)   ...       0.03
freq.     970.53  E(vib)   ...       0.03
freq.     982.31  E(vib)   ...       0.02
freq.    1013.10  E(vib)   ...       0.02
freq.    1026.28  E(vib)   ...       0.02
freq.    1027.43  E(vib)   ...       0.02
freq.    1033.80  E(vib)   ...       0.02
freq.    1037.46  E(vib)   ...       0.02
freq.    1055.46  E(vib)   ...       0.02
freq.    1085.00  E(vib)   ...       0.02
freq.    1093.29  E(vib)   ...       0.02
freq.    1170.66  E(vib)   ...       0.01
freq.    1185.28  E(vib)   ...       0.01
freq.    1233.45  E(vib)   ...       0.01
freq.    1284.69  E(vib)   ...       0.01
freq.    1289.35  E(vib)   ...       0.01
freq.    1306.29  E(vib)   ...       0.01
freq.    1328.07  E(vib)   ...       0.01
freq.    1389.77  E(vib)   ...       0.00
freq.    1418.26  E(vib)   ...       0.00
freq.    1459.26  E(vib)   ...       0.00
freq.    1475.89  E(vib)   ...       0.00
freq.    1519.68  E(vib)   ...       0.00
freq.    1563.10  E(vib)   ...       0.00
freq.    1616.56  E(vib)   ...       0.00
freq.    1632.36  E(vib)   ...       0.00
freq.    1646.10  E(vib)   ...       0.00
freq.    1707.43  E(vib)   ...       0.00
freq.    2299.10  E(vib)   ...       0.00
freq.    3110.91  E(vib)   ...       0.00
freq.    3134.84  E(vib)   ...       0.00
freq.    3165.55  E(vib)   ...       0.00
freq.    3167.86  E(vib)   ...       0.00
freq.    3183.98  E(vib)   ...       0.00
freq.    3186.61  E(vib)   ...       0.00
freq.    3200.02  E(vib)   ...       0.00
freq.    3205.61  E(vib)   ...       0.00
freq.    3220.72  E(vib)   ...       0.00
freq.    3287.21  E(vib)   ...       0.00
freq.    3774.31  E(vib)   ...       0.00

------------
INNER ENERGY
------------

The inner energy is: U= E(el) + E(ZPE) + E(vib) + E(rot) + E(trans)
    E(el)   - is the total energy from the electronic structure calculation
              = E(kin-el) + E(nuc-el) + E(el-el) + E(nuc-nuc)
    E(ZPE)  - the the zero temperature vibrational energy from the frequency calculation
    E(vib)  - the the finite temperature correction to E(ZPE) due to population
              of excited vibrational states
    E(rot)  - is the rotational thermal energy
    E(trans)- is the translational thermal energy

Summary of contributions to the inner energy U:
Electronic energy                ...   -647.09910363 Eh
Zero point energy                ...      0.19362526 Eh     121.50 kcal/mol
Thermal vibrational correction   ...      0.01279951 Eh       8.03 kcal/mol
Thermal rotational correction    ...      0.00141627 Eh       0.89 kcal/mol
Thermal translational correction ...      0.00141627 Eh       0.89 kcal/mol
-----------------------------------------------------------------------
Total thermal energy                   -646.88984631 Eh

Summary of corrections to the electronic energy:
(perhaps to be used in another calculation)
Total thermal correction                  0.01563206 Eh       9.81 kcal/mol
Non-thermal (ZPE) correction              0.19362526 Eh     121.50 kcal/mol
-----------------------------------------------------------------------
Total correction                          0.20925732 Eh     131.31 kcal/mol

--------
ENTHALPY
--------

The enthalpy is H = U + kB*T
                kB is Boltzmann's constant
Total free energy                 ...   -646.88984631 Eh
Thermal Enthalpy correction       ...      0.00094421 Eh       0.59 kcal/mol
-----------------------------------------------------------------------
Total Enthalpy                    ...   -646.88890210 Eh

Note: Only C1 symmetry has been detected, increase convergence thresholds
      if your molecule has a higher symmetry. Symmetry factor of 1.0 is
      used for the rotational entropy correction.

Note: Rotational entropy computed according to Herzberg
Infrared and Raman Spectra, Chapter V,1, Van Nostrand Reinhold, 1945
Point Group:  C1, Symmetry Number:   1
Rotational constants in cm-1:     0.040218     0.013660     0.012217

Vibrational entropy computed according to the QRRHO of S. Grimme
Chem.Eur.J. 2012 18 9955

-------
ENTROPY
-------

The entropy contributions are T*S = T*(S(el)+S(vib)+S(rot)+S(trans))
     S(el)   - electronic entropy
     S(vib)  - vibrational entropy
     S(rot)  - rotational entropy
     S(trans)- translational entropy
The entropies will be listed as multiplied by the temperature to get
units of energy

Electronic entropy                ...      0.00000000 Eh      0.00 kcal/mol
Vibrational entropy               ...      0.02495993 Eh     15.66 kcal/mol
Rotational entropy                ...      0.01513421 Eh      9.50 kcal/mol
Translational entropy             ...      0.01974394 Eh     12.39 kcal/mol
-----------------------------------------------------------------------

                             ****ORCA TERMINATED NORMALLY****
TOTAL RUN TIME: 0 days 0 hours 22 minutes 16 seconds 335 msec
