                         Program Version 5.0.4 -  RELEASE  -
|  1> !  opt B3LYP def2-TZVP CPCM D3
|  2> %pal nprocs 102 end
|  3> %cpcm epsilon 78.4 end
|  4> *xyz -1 1
|  5> C   0.15645726 1.25695591 0.59098119
|  6> C   0.49931481 1.03348683 -0.73953161
|  7> C   0.30741095 -0.22347396 -1.33868032
|  8> C   -0.19767633 -1.2666193 -0.55426621
|  9> C   -0.51549027 -1.03199573 0.78716835
| 10> C   -0.35789609 0.22765368 1.37237262
| 11> H   0.28593408 2.25166987 1.02659726
| 12> H   0.90469141 1.86304545 -1.32752647
| 13> H   -0.36574439 -2.25765379 -0.98661103
| 14> H   -0.63008972 0.4023669 2.41693377
| 15> N   -1.0331933 -2.1167509 1.58566082
| 16> O   -1.35973413 -1.90537396 2.74716806
| 17> O   -1.13540504 -3.23308274 1.08951565
| 18> C   0.58970252 -0.43873755 -2.75122793
| 19> H   2.52271032 -0.20493824 -2.83039453
| 20> C   0.66320083 -1.84128074 -3.27192811
| 21> H   1.0594912 -1.89916972 -4.29582962
| 22> H   -0.34357922 -2.29365679 -3.31090112
| 23> H   1.28365025 -2.4949995 -2.64370369
| 24> N   0.22954246 0.5197389 -3.65460769
| 25> O   0.39902199 0.34393304 -4.87921524
| 26> O   -0.21797803 1.62698666 -3.28996058
| 27> O   6.625639 1.38568957 -2.92301367
| 28> H   6.09211687 0.66825451 -2.88841406
| 29> H   3.85313432 0.37667215 -2.02573253
| 30> H   3.74962902 0.5797163 -3.59800811
| 31> O   3.58994989 -0.13417489 -2.88071199
| 32> *
| 33>
| 34>                          ****END OF INPUT****
 Total Charge           Charge          ....   -1
 Multiplicity           Mult            ....    1
 Number of Electrons    NEL             ....  122
 Basis Dimension        Dim             ....  562

ORBITAL ENERGIES
----------------

  NO   OCC          E(Eh)            E(eV)
   0   2.0000     -19.273373      -524.4551
   1   2.0000     -19.160847      -521.3932
   2   2.0000     -19.160799      -521.3919
   3   2.0000     -19.102679      -519.8103
   4   2.0000     -19.102414      -519.8031
   5   2.0000     -18.971103      -516.2299
   6   2.0000     -14.556067      -396.0907
   7   2.0000     -14.501692      -394.6111
   8   2.0000     -10.233176      -278.4589
   9   2.0000     -10.196759      -277.4679
  10   2.0000     -10.192228      -277.3446
  11   2.0000     -10.191790      -277.3327
  12   2.0000     -10.191500      -277.3248
  13   2.0000     -10.184992      -277.1477
  14   2.0000     -10.183975      -277.1201
  15   2.0000     -10.161565      -276.5102
  16   2.0000      -1.238565       -33.7031
  17   2.0000      -1.179198       -32.0876
  18   2.0000      -1.138101       -30.9693
  19   2.0000      -1.057524       -28.7767
  20   2.0000      -0.992362       -27.0035
  21   2.0000      -0.887819       -24.1588
  22   2.0000      -0.840420       -22.8690
  23   2.0000      -0.838078       -22.8053
  24   2.0000      -0.799327       -21.7508
  25   2.0000      -0.755546       -20.5595
  26   2.0000      -0.704712       -19.1762
  27   2.0000      -0.690498       -18.7894
  28   2.0000      -0.629061       -17.1176
  29   2.0000      -0.608864       -16.5680
  30   2.0000      -0.606815       -16.5123
  31   2.0000      -0.597165       -16.2497
  32   2.0000      -0.570473       -15.5234
  33   2.0000      -0.544767       -14.8239
  34   2.0000      -0.536627       -14.6024
  35   2.0000      -0.524173       -14.2635
  36   2.0000      -0.505706       -13.7610
  37   2.0000      -0.494397       -13.4532
  38   2.0000      -0.489686       -13.3250
  39   2.0000      -0.485533       -13.2120
  40   2.0000      -0.474062       -12.8999
  41   2.0000      -0.460821       -12.5396
  42   2.0000      -0.440905       -11.9976
  43   2.0000      -0.414894       -11.2898
  44   2.0000      -0.400263       -10.8917
  45   2.0000      -0.383331       -10.4310
  46   2.0000      -0.381367       -10.3775
  47   2.0000      -0.373239       -10.1563
  48   2.0000      -0.353570        -9.6211
  49   2.0000      -0.330037        -8.9808
  50   2.0000      -0.327938        -8.9236
  51   2.0000      -0.324578        -8.8322
  52   2.0000      -0.300970        -8.1898
  53   2.0000      -0.292927        -7.9710
  54   2.0000      -0.288580        -7.8527
  55   2.0000      -0.277783        -7.5589
  56   2.0000      -0.273170        -7.4333
  57   2.0000      -0.245636        -6.6841
  58   2.0000      -0.201131        -5.4731
  59   2.0000      -0.190014        -5.1706
  60   2.0000      -0.189506        -5.1567
  61   0.0000      -0.099556        -2.7091
  62   0.0000      -0.043923        -1.1952
  63   0.0000      -0.019503        -0.5307
  64   0.0000      -0.003892        -0.1059
  65   0.0000       0.019967         0.5433

MULLIKEN ATOMIC CHARGES
-----------------------
   0 C :   -0.123201
   1 C :   -0.137634
   2 C :    0.241466
   3 C :   -0.262055
   4 C :    0.107362
   5 C :   -0.184673
   6 H :    0.149397
   7 H :    0.145745
   8 H :    0.170271
   9 H :    0.162332
  10 N :    0.450526
  11 O :   -0.368594
  12 O :   -0.370710
  13 C :   -0.378159
  14 H :    0.412876
  15 C :   -0.364883
  16 H :    0.138943
  17 H :    0.121148
  18 H :    0.142396
  19 N :    0.463769
  20 O :   -0.504749
  21 O :   -0.501152
  22 O :   -1.189949
  23 H :    0.238513
  24 H :    0.430008
  25 H :    0.425980
  26 O :   -0.414972
Sum of atomic charges:   -1.0000000

LOEWDIN ATOMIC CHARGES
----------------------
   0 C :   -0.132617
   1 C :   -0.078191
   2 C :   -0.143849
   3 C :   -0.060807
   4 C :   -0.172534
   5 C :   -0.101786
   6 H :    0.157036
   7 H :    0.158804
   8 H :    0.165509
   9 H :    0.160368
  10 N :   -0.016516
  11 O :   -0.063166
  12 O :   -0.064332
  13 C :   -0.310898
  14 H :    0.239719
  15 C :   -0.303418
  16 H :    0.128399
  17 H :    0.126442
  18 H :    0.131843
  19 N :   -0.057997
  20 O :   -0.203884
  21 O :   -0.184167
  22 O :   -0.977195
  23 H :    0.015466
  24 H :    0.273525
  25 H :    0.267893
  26 O :    0.046353

  Mayer bond orders larger than 0.100000
B(  0-C ,  1-C ) :   1.4144 B(  0-C ,  5-C ) :   1.3919 B(  0-C ,  6-H ) :   0.9760
B(  1-C ,  2-C ) :   1.2683 B(  1-C ,  7-H ) :   0.9591 B(  2-C ,  3-C ) :   1.3898
B(  2-C , 13-C ) :   0.9747 B(  3-C ,  4-C ) :   1.4134 B(  3-C ,  8-H ) :   0.9183
B(  4-C ,  5-C ) :   1.3401 B(  4-C , 10-N ) :   1.0266 B(  5-C ,  9-H ) :   0.9491
B( 10-N , 11-O ) :   1.5784 B( 10-N , 12-O ) :   1.5735 B( 11-O , 12-O ) :   0.1759
B( 13-C , 14-H ) :   0.1594 B( 13-C , 15-C ) :   0.9944 B( 13-C , 19-N ) :   1.2518
B( 13-C , 20-O ) :   0.1192 B( 13-C , 21-O ) :   0.1299 B( 14-H , 26-O ) :   0.6903
B( 15-C , 16-H ) :   0.9565 B( 15-C , 17-H ) :   0.9553 B( 15-C , 18-H ) :   0.9750
B( 19-N , 20-O ) :   1.4127 B( 19-N , 21-O ) :   1.4309 B( 22-O , 23-H ) :   0.9727
B( 24-H , 26-O ) :   0.7845 B( 25-H , 26-O ) :   0.7875

Dispersion correction           -0.049050459
FINAL SINGLE POINT ENERGY      -872.141238423104
Dispersion correction            ... done
Dispersion correction           -0.049339775
FINAL SINGLE POINT ENERGY      -872.154601846500
Dispersion correction            ... done
Dispersion correction           -0.049856564
FINAL SINGLE POINT ENERGY      -872.158010968620
Dispersion correction            ... done
FINAL SINGLE POINT ENERGY      -872.160629018314
FINAL SINGLE POINT ENERGY      -872.163438272738
FINAL SINGLE POINT ENERGY      -872.167659929129
FINAL SINGLE POINT ENERGY      -872.173590541094
FINAL SINGLE POINT ENERGY      -872.179544101833
FINAL SINGLE POINT ENERGY      -872.186667193096
FINAL SINGLE POINT ENERGY      -872.193205823189
FINAL SINGLE POINT ENERGY      -872.240201937033
FINAL SINGLE POINT ENERGY      -872.241210661815
FINAL SINGLE POINT ENERGY      -872.240989051829
FINAL SINGLE POINT ENERGY      -872.241422224869
FINAL SINGLE POINT ENERGY      -872.241509507091
FINAL SINGLE POINT ENERGY      -872.241678112634
FINAL SINGLE POINT ENERGY      -872.241915876427
Dispersion correction           -0.048216422
FINAL SINGLE POINT ENERGY      -872.242122250813
Dispersion correction            ... done
Dispersion correction           -0.048254650
FINAL SINGLE POINT ENERGY      -872.242238510953
Dispersion correction            ... done

CARTESIAN COORDINATES (ANGSTROEM)
---------------------------------
  C      0.800268    0.705014    0.977147
  C      1.198086    0.497046   -0.340403
  C      0.529771   -0.411304   -1.157711
  C     -0.555667   -1.115255   -0.643043
  C     -0.942772   -0.889689    0.669314
  C     -0.281220    0.011089    1.497369
  H      1.332520    1.413629    1.597515
  H      2.042743    1.037864   -0.745079
  H     -1.100216   -1.826630   -1.245877
  H     -0.609104    0.159724    2.514619
  N     -2.094004   -1.622569    1.199239
  O     -2.385455   -1.466497    2.378869
  O     -2.714538   -2.357112    0.439871
  C      1.002504   -0.616360   -2.571185
  H      2.010898   -0.147665   -2.695199
  C      1.093097   -2.069355   -3.019635
  H      1.558991   -2.134393   -3.999901
  H      0.115523   -2.551225   -3.059734
  H      1.715159   -2.604602   -2.303519
  N      0.146033    0.173209   -3.537013
  O      0.293201   -0.048993   -4.731246
  O     -0.601424    1.037416   -3.100226
  O      5.378988    2.045497   -4.114770
  H      6.220844    1.576297   -4.133730
  H      4.048206    0.456238   -1.974501
  H      4.729141    1.422090   -3.593126
  O      3.723237    0.520797   -2.881913

Dispersion correction           -0.048254521
FINAL SINGLE POINT ENERGY      -872.242313506413
Dispersion correction            ... done

DIPOLE MOMENT
-------------
                                X             Y             Z
Electronic contribution:    -19.79080      -2.71892       9.24193
Nuclear contribution   :     16.78729       0.33289      -5.07162
                        -----------------------------------------
Total Dipole Moment    :     -3.00352      -2.38602       4.17032
                        -----------------------------------------
Magnitude (a.u.)       :      5.66620
Magnitude (Debye)      :     14.40232

Rotational constants in cm-1:     0.027990     0.007909     0.006860
Rotational constants in MHz :   839.126179   237.098475   205.647790

                             ****ORCA TERMINATED NORMALLY****
TOTAL RUN TIME: 0 days 1 hours 29 minutes 48 seconds 933 msec
