                         Program Version 5.0.4 -  RELEASE  -
|  1> ! NEB-TS b3lyp D3 def2-TZVP CPCM
|  2>
|  3> %pal
|  4> nprocs 102
|  5> end
|  6>
|  7> %cpcm
|  8> epsilon 78.4
|  9> end
| 10>
| 11> %neb
| 12> NEB_End_XYZFile "end.xyz"
| 13> Nimages 6
| 14> end
| 15>
| 16>
| 17> *XYZfile 0 1 start.xyz
| 18>
| 19>                          ****END OF INPUT****
 Total Charge           Charge          ....    0
 Multiplicity           Mult            ....    1
 Number of Electrons    NEL             ....  114
Dispersion correction           -0.051814136
FINAL SINGLE POINT ENERGY      -725.684138543641
Dispersion correction            ... done
Dispersion correction           -0.051287573
FINAL SINGLE POINT ENERGY      -725.685409955108
Dispersion correction            ... done
Dispersion correction           -0.051247945
FINAL SINGLE POINT ENERGY      -725.685974825715
Dispersion correction            ... done
FINAL SINGLE POINT ENERGY      -725.686991406546
FINAL SINGLE POINT ENERGY      -725.687895281567
FINAL SINGLE POINT ENERGY      -725.688692788955
FINAL SINGLE POINT ENERGY      -725.688118852976
FINAL SINGLE POINT ENERGY      -725.687928758075
FINAL SINGLE POINT ENERGY      -725.689369361871
FINAL SINGLE POINT ENERGY      -725.689479091193
FINAL SINGLE POINT ENERGY      -725.689503390540
FINAL SINGLE POINT ENERGY      -725.688764165010
FINAL SINGLE POINT ENERGY      -725.689410390974
FINAL SINGLE POINT ENERGY      -725.689496454473
FINAL SINGLE POINT ENERGY      -725.689074848889
FINAL SINGLE POINT ENERGY      -725.689523793632
FINAL SINGLE POINT ENERGY      -725.689478142990
Dispersion correction            ... done
Dispersion correction           -0.051343909
FINAL SINGLE POINT ENERGY      -725.689540932005
Dispersion correction            ... done

CARTESIAN COORDINATES (ANGSTROEM)
---------------------------------
  C     -3.434279    1.628124    0.032195
  H     -4.298480    1.633948   -0.622234
  N     -4.548337   -0.056109    1.449723
  O     -5.591313    0.054785    0.788748
  O     -4.512282   -0.715086    2.502116
  H     -1.626173    2.600945    0.544706
  C     -3.325804    0.488629    0.952147
  H     -2.830760   -0.525003    0.260876
  H     -2.629260    0.604061    1.776888
  C     -2.507227    2.579699   -0.087478
  H     -2.600839    3.362063   -0.829627
  C      1.129715   -1.543405   -0.012453
  C      2.454620   -1.145168    0.013495
  C      2.769029    0.130848   -0.492880
  C      1.735417    0.922506   -0.992534
  C      0.437616    0.455114   -0.983226
  N      0.160899   -0.758080   -0.498601
  H      0.816241   -2.509422    0.360734
  H      1.943454    1.907357   -1.387778
  H     -0.400628    1.030531   -1.349889
  C      3.508031   -2.055535    0.567930
  H      4.025129   -1.584770    1.407314
  H      4.263678   -2.280266   -0.188352
  H      3.071932   -2.992303    0.911053
  C      4.180032    0.626427   -0.493064
  H      4.246406    1.625375   -0.919508
  H      4.822607   -0.046065   -1.066739
  H      4.578018    0.649540    0.524611
  H     -0.928005   -1.115032   -0.487158
  O     -2.255559   -1.496040   -0.400581
  H     -2.653877   -1.477670   -1.280436

Dispersion correction           -0.051335499
FINAL SINGLE POINT ENERGY      -725.689540566348
Dispersion correction            ... done
                    ***********************HURRAY********************
 Multiplicity           Mult            ....    1
 Number of Electrons    NEL             ....  114
 Basis Dimension        Dim             ....  561

ORBITAL ENERGIES
----------------

  NO   OCC          E(Eh)            E(eV)
   0   2.0000     -19.135923      -520.7149
   1   2.0000     -19.134197      -520.6680
   2   2.0000     -19.086595      -519.3726
   3   2.0000     -14.526242      -395.2791
   4   2.0000     -14.375881      -391.1876
   5   2.0000     -10.232896      -278.4513
   6   2.0000     -10.232023      -278.4275
   7   2.0000     -10.216516      -278.0055
   8   2.0000     -10.205974      -277.7187
   9   2.0000     -10.194551      -277.4078
  10   2.0000     -10.185187      -277.1530
  11   2.0000     -10.175368      -276.8858
  12   2.0000     -10.171349      -276.7765
  13   2.0000     -10.170526      -276.7541
  14   2.0000     -10.156291      -276.3667
  15   2.0000      -1.201454       -32.6932
  16   2.0000      -1.024722       -27.8841
  17   2.0000      -0.998102       -27.1597
  18   2.0000      -0.947371       -25.7793
  19   2.0000      -0.851006       -23.1571
  20   2.0000      -0.820704       -22.3325
  21   2.0000      -0.802438       -21.8355
  22   2.0000      -0.745100       -20.2752
  23   2.0000      -0.734189       -19.9783
  24   2.0000      -0.714716       -19.4484
  25   2.0000      -0.640954       -17.4412
  26   2.0000      -0.619853       -16.8671
  27   2.0000      -0.607994       -16.5444
  28   2.0000      -0.565282       -15.3821
  29   2.0000      -0.556146       -15.1335
  30   2.0000      -0.528474       -14.3805
  31   2.0000      -0.525026       -14.2867
  32   2.0000      -0.524390       -14.2694
  33   2.0000      -0.501420       -13.6443
  34   2.0000      -0.481985       -13.1155
  35   2.0000      -0.466788       -12.7020
  36   2.0000      -0.457326       -12.4445
  37   2.0000      -0.452523       -12.3138
  38   2.0000      -0.442889       -12.0516
  39   2.0000      -0.427596       -11.6355
  40   2.0000      -0.420262       -11.4359
  41   2.0000      -0.416767       -11.3408
  42   2.0000      -0.408879       -11.1262
  43   2.0000      -0.406412       -11.0590
  44   2.0000      -0.398426       -10.8417
  45   2.0000      -0.384908       -10.4739
  46   2.0000      -0.368064       -10.0155
  47   2.0000      -0.361816        -9.8455
  48   2.0000      -0.351851        -9.5744
  49   2.0000      -0.305915        -8.3244
  50   2.0000      -0.302876        -8.2417
  51   2.0000      -0.300333        -8.1725
  52   2.0000      -0.292912        -7.9705
  53   2.0000      -0.284910        -7.7528
  54   2.0000      -0.279410        -7.6031
  55   2.0000      -0.278223        -7.5708
  56   2.0000      -0.218369        -5.9421
  57   0.0000      -0.060282        -1.6404
  58   0.0000      -0.054281        -1.4771
  59   0.0000      -0.033707        -0.9172
  60   0.0000       0.009382         0.2553
  61   0.0000       0.040853         1.1117

-------
TIMINGS
-------

Dispersion correction           -0.051329953
FINAL SINGLE POINT ENERGY      -725.689541479271
                    ***********************HURRAY************************

DIPOLE MOMENT
-------------
                                X             Y             Z
Electronic contribution:    -13.18923      -1.46529       2.53964
Nuclear contribution   :     20.76762       2.21398      -4.93307
                        -----------------------------------------
Total Dipole Moment    :      7.57839       0.74868      -2.39343
                        -----------------------------------------
Magnitude (a.u.)       :      7.98254
Magnitude (Debye)      :     20.29001

Rotational constants in cm-1:     0.037921     0.007205     0.006497
Rotational constants in MHz :  1136.851130   215.986811   194.786475

                             ****ORCA TERMINATED NORMALLY****
TOTAL RUN TIME: 0 days 3 hours 23 minutes 57 seconds 365 msec
