                         Program Version 5.0.4 -  RELEASE  -
|  1> !  opt B3LYP def2-TZVP CPCM D3
|  2> %pal nprocs 102 end
|  3> %cpcm epsilon 78.4 end
|  4> *xyz -1 1
|  5> C   -0.77373 1.16768 -0.07989
|  6> C   0.5823 1.18121 0.23895
|  7> C   1.33178 -0.00286 0.21123
|  8> C   0.70543 -1.20323 -0.10226
|  9> C   -0.66092 -1.20596 -0.40109
| 10> C   -1.41056 -0.02697 -0.40953
| 11> H   -1.34704 2.09974 -0.06523
| 12> H   1.05895 2.13145 0.50553
| 13> H   1.25598 -2.15301 -0.11422
| 14> H   -2.47476 -0.03623 -0.66807
| 15> N   -1.28645 -2.47112 -0.69928
| 16> O   -2.46913 -2.50162 -1.00988
| 17> O   -0.61616 -3.4952 -0.62686
| 18> C   2.7912 0.02949 0.57482
| 19> H   2.90727 0.51356 1.60886
| 20> C   3.45458 -1.34116 0.62395
| 21> H   4.51004 -1.28087 0.92801
| 22> H   3.42967 -1.87408 -0.33605
| 23> H   2.95399 -1.98556 1.36623
| 24> N   3.55824 0.90503 -0.37306
| 25> O   4.74621 1.08582 -0.15242
| 26> O   2.98955 1.42771 -1.31733
| 27> O   2.63422 2.55593 6.05669
| 28> H   2.92583 1.85169 5.58186
| 29> H   2.04886 1.12344 3.70127
| 30> H   3.48935 1.57349 3.56331
| 31> O   2.93472 0.78373 3.52398
| 32> *
| 33>
| 34>                          ****END OF INPUT****
 Total Charge           Charge          ....   -1
 Multiplicity           Mult            ....    1
 Number of Electrons    NEL             ....  122
 Basis Dimension        Dim             ....  562

ORBITAL ENERGIES
----------------

  NO   OCC          E(Eh)            E(eV)
   0   2.0000     -19.169036      -521.6160
   1   2.0000     -19.166665      -521.5515
   2   2.0000     -19.166168      -521.5379
   3   2.0000     -19.165115      -521.5093
   4   2.0000     -19.130625      -520.5708
   5   2.0000     -18.966197      -516.0965
   6   2.0000     -14.561213      -396.2308
   7   2.0000     -14.554173      -396.0392
   8   2.0000     -10.241360      -278.6816
   9   2.0000     -10.237345      -278.5723
  10   2.0000     -10.206763      -277.7401
  11   2.0000     -10.205093      -277.6947
  12   2.0000     -10.203492      -277.6511
  13   2.0000     -10.199695      -277.5478
  14   2.0000     -10.194220      -277.3988
  15   2.0000     -10.175225      -276.8820
  16   2.0000      -1.243650       -33.8414
  17   2.0000      -1.242688       -33.8153
  18   2.0000      -1.064289       -28.9608
  19   2.0000      -1.062906       -28.9231
  20   2.0000      -1.016150       -27.6508
  21   2.0000      -0.898980       -24.4625
  22   2.0000      -0.851720       -23.1765
  23   2.0000      -0.834557       -22.7095
  24   2.0000      -0.808922       -22.0119
  25   2.0000      -0.763377       -20.7725
  26   2.0000      -0.715370       -19.4662
  27   2.0000      -0.698343       -19.0029
  28   2.0000      -0.641947       -17.4683
  29   2.0000      -0.604764       -16.4565
  30   2.0000      -0.588253       -16.0072
  31   2.0000      -0.570338       -15.5197
  32   2.0000      -0.555154       -15.1065
  33   2.0000      -0.549566       -14.9544
  34   2.0000      -0.531001       -14.4493
  35   2.0000      -0.529677       -14.4133
  36   2.0000      -0.528878       -14.3915
  37   2.0000      -0.521280       -14.1847
  38   2.0000      -0.508209       -13.8291
  39   2.0000      -0.481446       -13.1008
  40   2.0000      -0.457084       -12.4379
  41   2.0000      -0.450440       -12.2571
  42   2.0000      -0.415568       -11.3082
  43   2.0000      -0.402485       -10.9522
  44   2.0000      -0.395045       -10.7497
  45   2.0000      -0.392296       -10.6749
  46   2.0000      -0.389680       -10.6037
  47   2.0000      -0.369256       -10.0480
  48   2.0000      -0.363080        -9.8799
  49   2.0000      -0.335962        -9.1420
  50   2.0000      -0.331669        -9.0252
  51   2.0000      -0.328748        -8.9457
  52   2.0000      -0.328063        -8.9270
  53   2.0000      -0.323072        -8.7912
  54   2.0000      -0.312845        -8.5129
  55   2.0000      -0.305361        -8.3093
  56   2.0000      -0.300663        -8.1815
  57   2.0000      -0.281363        -7.6563
  58   2.0000      -0.273105        -7.4316
  59   2.0000      -0.185803        -5.0560
  60   2.0000      -0.185770        -5.0550
  61   0.0000      -0.105309        -2.8656
  62   0.0000      -0.080421        -2.1884
  63   0.0000      -0.034737        -0.9452
  64   0.0000      -0.009673        -0.2632
  65   0.0000       0.029610         0.8057

MULLIKEN ATOMIC CHARGES
-----------------------
   0 C :   -0.106228
   1 C :   -0.190773
   2 C :    0.131616
   3 C :   -0.205739
   4 C :    0.096261
   5 C :   -0.173454
   6 H :    0.159151
   7 H :    0.160649
   8 H :    0.181629
   9 H :    0.170374
  10 N :    0.455852
  11 O :   -0.360164
  12 O :   -0.364535
  13 C :    0.083854
  14 H :    0.155460
  15 C :   -0.433785
  16 H :    0.151754
  17 H :    0.149652
  18 H :    0.154977
  19 N :    0.433120
  20 O :   -0.355550
  21 O :   -0.341360
  22 O :   -1.199529
  23 H :    0.234588
  24 H :    0.344074
  25 H :    0.345908
  26 O :   -0.677801
Sum of atomic charges:   -1.0000000

LOEWDIN ATOMIC CHARGES
----------------------
   0 C :   -0.116117
   1 C :   -0.064052
   2 C :   -0.126564
   3 C :   -0.049596
   4 C :   -0.161698
   5 C :   -0.077213
   6 H :    0.161217
   7 H :    0.165464
   8 H :    0.171626
   9 H :    0.165300
  10 N :   -0.015351
  11 O :   -0.053206
  12 O :   -0.056331
  13 C :   -0.221839
  14 H :    0.189380
  15 C :   -0.272136
  16 H :    0.132512
  17 H :    0.133305
  18 H :    0.142829
  19 N :   -0.026569
  20 O :   -0.052617
  21 O :   -0.033739
  22 O :   -0.985311
  23 H :    0.008419
  24 H :    0.161607
  25 H :    0.163372
  26 O :   -0.282692

  Mayer bond orders larger than 0.100000
B(  0-C ,  1-C ) :   1.4086 B(  0-C ,  5-C ) :   1.3937 B(  0-C ,  6-H ) :   0.9712
B(  1-C ,  2-C ) :   1.3105 B(  1-C ,  7-H ) :   0.9695 B(  2-C ,  3-C ) :   1.3887
B(  2-C , 13-C ) :   0.9336 B(  3-C ,  4-C ) :   1.4156 B(  3-C ,  8-H ) :   0.9061
B(  4-C ,  5-C ) :   1.3484 B(  4-C , 10-N ) :   1.0228 B(  5-C ,  9-H ) :   0.9453
B( 10-N , 11-O ) :   1.5858 B( 10-N , 12-O ) :   1.5730 B( 11-O , 12-O ) :   0.1823
B( 13-C , 14-H ) :   0.8774 B( 13-C , 15-C ) :   0.9332 B( 13-C , 19-N ) :   0.8542
B( 14-H , 26-O ) :   0.1273 B( 15-C , 16-H ) :   0.9620 B( 15-C , 17-H ) :   0.9566
B( 15-C , 18-H ) :   0.9697 B( 19-N , 20-O ) :   1.6056 B( 19-N , 21-O ) :   1.6151
B( 20-O , 21-O ) :   0.2030 B( 22-O , 23-H ) :   0.9666 B( 24-H , 26-O ) :   0.8653
B( 25-H , 26-O ) :   0.8666

Dispersion correction           -0.048072782
FINAL SINGLE POINT ENERGY      -872.202330373825
Dispersion correction            ... done
Dispersion correction           -0.048022450
FINAL SINGLE POINT ENERGY      -872.211522196753
Dispersion correction            ... done
Dispersion correction           -0.047940070
FINAL SINGLE POINT ENERGY      -872.212137263406
Dispersion correction            ... done
FINAL SINGLE POINT ENERGY      -872.213778491468
FINAL SINGLE POINT ENERGY      -872.213623592642
FINAL SINGLE POINT ENERGY      -872.214953876163
FINAL SINGLE POINT ENERGY      -872.215402126998
FINAL SINGLE POINT ENERGY      -872.215764364496
FINAL SINGLE POINT ENERGY      -872.216060951901
FINAL SINGLE POINT ENERGY      -872.216240776276
FINAL SINGLE POINT ENERGY      -872.241661723938
FINAL SINGLE POINT ENERGY      -872.242191310386
FINAL SINGLE POINT ENERGY      -872.242121446439
FINAL SINGLE POINT ENERGY      -872.242119731047
FINAL SINGLE POINT ENERGY      -872.242273792560
FINAL SINGLE POINT ENERGY      -872.242345278571
FINAL SINGLE POINT ENERGY      -872.242287115645
Dispersion correction           -0.048401464
FINAL SINGLE POINT ENERGY      -872.242204363226
Dispersion correction            ... done
Dispersion correction           -0.048362639
FINAL SINGLE POINT ENERGY      -872.242020241652
Dispersion correction            ... done

CARTESIAN COORDINATES (ANGSTROEM)
---------------------------------
  C     -1.068722    0.592060    0.723859
  C      0.285108    0.641068    1.043750
  C      1.207329   -0.203435    0.412315
  C      0.753673   -1.104351   -0.535991
  C     -0.597838   -1.134957   -0.847259
  C     -1.524212   -0.300475   -0.238595
  H     -1.766923    1.252621    1.214372
  H      0.638776    1.337043    1.795307
  H      1.433603   -1.775385   -1.042951
  H     -2.568150   -0.357348   -0.507913
  N     -1.061587   -2.086398   -1.863982
  O     -2.254138   -2.105784   -2.139567
  O     -0.235840   -2.819185   -2.395240
  C      2.663407   -0.143931    0.798341
  H      2.765950    0.492621    1.711122
  C      3.307743   -1.492477    1.067966
  H      4.321982   -1.369132    1.446903
  H      3.337721   -2.122621    0.177342
  H      2.713508   -1.999296    1.832939
  N      3.442533    0.637948   -0.244628
  O      4.630593    0.394347   -0.385699
  O      2.862890    1.532718   -0.846160
  O      3.988159    3.192686    4.379444
  H      3.850339    3.194265    5.332642
  H      1.878750    1.101418    3.744625
  H      3.469301    2.360898    4.034950
  O      2.795464    1.137182    3.461628

Dispersion correction           -0.048393423
FINAL SINGLE POINT ENERGY      -872.242322369409
Dispersion correction            ... done

DIPOLE MOMENT
-------------
                                X             Y             Z
Electronic contribution:    -10.67318      -6.10498     -18.74443
Nuclear contribution   :      5.48060       3.53600      16.20891
                        -----------------------------------------
Total Dipole Moment    :     -5.19258      -2.56897      -2.53552
                        -----------------------------------------
Magnitude (a.u.)       :      6.32387
Magnitude (Debye)      :     16.07401

Rotational constants in cm-1:     0.027165     0.008206     0.007086
Rotational constants in MHz :   814.374437   245.995415   212.425922

                             ****ORCA TERMINATED NORMALLY****
TOTAL RUN TIME: 0 days 1 hours 31 minutes 28 seconds 902 msec
