                         Program Version 5.0.4 -  RELEASE  -
|  1> !  opt B3LYP def2-TZVP CPCM D3
|  2> %pal nprocs 102 end
|  3> %cpcm epsilon 78.4 end
|  4> *xyz -1 1
|  5> C   0.75044404 -0.78570466 0.02103457
|  6> H   3.07039379 -1.10892561 0.3990925
|  7> N   0.74295913 -1.41860221 1.18082238
|  8> O   0.70051795 -2.68836421 1.26090177
|  9> O   0.80701594 -0.79197741 2.28758975
| 10> C   6.67908426 -3.18590003 0.47249205
| 11> O   5.97797221 -2.31027909 1.20785516
| 12> O   6.29220528 -3.52405171 -0.62807149
| 13> C   7.90153989 -3.64395568 1.16959412
| 14> H   8.66818125 -4.00741729 0.46378325
| 15> H   7.68950416 -4.47846383 1.86226586
| 16> H   8.36817953 -2.84818268 1.77573284
| 17> C   0.7576648 0.70255462 -0.03112131
| 18> H   1.19249533 1.15772524 0.87105636
| 19> H   -0.26175437 1.10495474 -0.13208974
| 20> H   1.33592032 1.0734493 -0.88976674
| 21> C   0.67914793 -1.53781198 -1.26137119
| 22> H   -0.33760841 -1.52057931 -1.68045536
| 23> H   0.96470436 -2.59421268 -1.14960816
| 24> H   1.34732232 -1.10128601 -2.01781357
| 25> H   5.1567618 -1.90204892 0.75352551
| 26> O   3.96147653 -1.00878417 0.02874811
| 27> H   4.203032 -0.08805741 0.21906321
| 28> *
| 29>
| 30>                          ****END OF INPUT****
 Total Charge           Charge          ....   -1
 Multiplicity           Mult            ....    1
 Number of Electrons    NEL             ....   90
 Basis Dimension        Dim             ....  413

ORBITAL ENERGIES
----------------

  NO   OCC          E(Eh)            E(eV)
   0   2.0000     -19.145838      -520.9847
   1   2.0000     -19.145559      -520.9771
   2   2.0000     -19.107678      -519.9463
   3   2.0000     -19.059852      -518.6449
   4   2.0000     -19.059752      -518.6422
   5   2.0000     -14.454071      -393.3153
   6   2.0000     -10.300418      -280.2886
   7   2.0000     -10.172896      -276.8186
   8   2.0000     -10.167097      -276.6608
   9   2.0000     -10.150895      -276.2199
  10   2.0000     -10.150436      -276.2074
  11   2.0000      -1.126045       -30.6412
  12   2.0000      -1.089106       -29.6361
  13   2.0000      -1.028318       -27.9819
  14   2.0000      -0.999120       -27.1874
  15   2.0000      -0.940157       -25.5830
  16   2.0000      -0.809091       -22.0165
  17   2.0000      -0.749100       -20.3840
  18   2.0000      -0.687894       -18.7185
  19   2.0000      -0.677794       -18.4437
  20   2.0000      -0.602568       -16.3967
  21   2.0000      -0.543078       -14.7779
  22   2.0000      -0.503889       -13.7115
  23   2.0000      -0.492050       -13.3894
  24   2.0000      -0.471234       -12.8229
  25   2.0000      -0.468398       -12.7457
  26   2.0000      -0.466725       -12.7002
  27   2.0000      -0.461196       -12.5498
  28   2.0000      -0.452477       -12.3125
  29   2.0000      -0.426296       -11.6001
  30   2.0000      -0.400650       -10.9022
  31   2.0000      -0.395384       -10.7590
  32   2.0000      -0.384506       -10.4629
  33   2.0000      -0.380275       -10.3478
  34   2.0000      -0.375420       -10.2157
  35   2.0000      -0.374562       -10.1924
  36   2.0000      -0.371665       -10.1135
  37   2.0000      -0.338345        -9.2068
  38   2.0000      -0.332159        -9.0385
  39   2.0000      -0.314720        -8.5640
  40   2.0000      -0.278250        -7.5716
  41   2.0000      -0.260869        -7.0986
  42   2.0000      -0.244248        -6.6463
  43   2.0000      -0.212969        -5.7952
  44   2.0000      -0.172636        -4.6977
  45   0.0000       0.005519         0.1502
  46   0.0000       0.018667         0.5080
  47   0.0000       0.034925         0.9504
  48   0.0000       0.054793         1.4910
  49   0.0000       0.073661         2.0044

MULLIKEN ATOMIC CHARGES
-----------------------
   0 C :   -0.113166
   1 H :    0.388418
   2 N :    0.384049
   3 O :   -0.631445
   4 O :   -0.632244
   5 C :    0.352870
   6 O :   -0.440610
   7 O :   -0.425378
   8 C :   -0.368941
   9 H :    0.139435
  10 H :    0.157748
  11 H :    0.143829
  12 C :   -0.344428
  13 H :    0.108596
  14 H :    0.109593
  15 H :    0.115050
  16 C :   -0.336930
  17 H :    0.108171
  18 H :    0.109463
  19 H :    0.113284
  20 H :    0.366391
  21 O :   -0.677608
  22 H :    0.373853
Sum of atomic charges:   -1.0000000

LOEWDIN ATOMIC CHARGES
----------------------
   0 C :   -0.362170
   1 H :    0.174698
   2 N :   -0.089832
   3 O :   -0.331304
   4 O :   -0.331838
   5 C :   -0.544435
   6 O :    0.059677
   7 O :    0.019226
   8 C :   -0.267314
   9 H :    0.139706
  10 H :    0.150933
  11 H :    0.141741
  12 C :   -0.308786
  13 H :    0.121634
  14 H :    0.122299
  15 H :    0.124943
  16 C :   -0.309186
  17 H :    0.122103
  18 H :    0.122421
  19 H :    0.124160
  20 H :    0.183055
  21 O :   -0.249392
  22 H :    0.187662

  Mayer bond orders larger than 0.100000
B(  0-C ,  2-N ) :   1.5052 B(  0-C ,  3-O ) :   0.1638 B(  0-C ,  4-O ) :   0.1528
B(  0-C , 12-C ) :   0.9747 B(  0-C , 16-C ) :   0.9776 B(  1-H , 21-O ) :   0.8553
B(  2-N ,  3-O ) :   1.2841 B(  2-N ,  4-O ) :   1.2864 B(  5-C ,  6-O ) :   1.2453
B(  5-C ,  7-O ) :   1.9841 B(  5-C ,  8-C ) :   0.9815 B(  6-O , 20-H ) :   0.7466
B(  8-C ,  9-H ) :   0.9678 B(  8-C , 10-H ) :   0.9346 B(  8-C , 11-H ) :   0.9527
B( 12-C , 13-H ) :   0.9708 B( 12-C , 14-H ) :   0.9589 B( 12-C , 15-H ) :   0.9703
B( 16-C , 17-H ) :   0.9578 B( 16-C , 18-H ) :   0.9730 B( 16-C , 19-H ) :   0.9676
B( 20-H , 21-O ) :   0.1435 B( 21-O , 22-H ) :   0.8644

Dispersion correction           -0.027604062
FINAL SINGLE POINT ENERGY      -628.676881453429
Dispersion correction            ... done
Dispersion correction           -0.027684235
FINAL SINGLE POINT ENERGY      -628.681214000765
Dispersion correction            ... done
Dispersion correction           -0.027717648
FINAL SINGLE POINT ENERGY      -628.682242384995
Dispersion correction            ... done
FINAL SINGLE POINT ENERGY      -628.682315908737
FINAL SINGLE POINT ENERGY      -628.682571691268
FINAL SINGLE POINT ENERGY      -628.682645159556
FINAL SINGLE POINT ENERGY      -628.682764072753
FINAL SINGLE POINT ENERGY      -628.682880079219
FINAL SINGLE POINT ENERGY      -628.683039725029
FINAL SINGLE POINT ENERGY      -628.683201483995
FINAL SINGLE POINT ENERGY      -628.686937985958
FINAL SINGLE POINT ENERGY      -628.686968939876
FINAL SINGLE POINT ENERGY      -628.687011221892
FINAL SINGLE POINT ENERGY      -628.687034697721
FINAL SINGLE POINT ENERGY      -628.687064713513
FINAL SINGLE POINT ENERGY      -628.687101210791
FINAL SINGLE POINT ENERGY      -628.687120107093
Dispersion correction           -0.029905564
FINAL SINGLE POINT ENERGY      -628.687135784178
Dispersion correction            ... done
Dispersion correction           -0.029878803
FINAL SINGLE POINT ENERGY      -628.687151238266
Dispersion correction            ... done

CARTESIAN COORDINATES (ANGSTROEM)
---------------------------------
  C      1.384903   -1.058665    0.003306
  H      3.319663   -0.430061   -0.345171
  N      1.902110   -1.793983    0.980683
  O      2.224647   -3.031687    0.778630
  O      2.103955   -1.291989    2.157457
  C      5.991817   -2.859299    0.515354
  O      5.757328   -1.657791    1.041048
  O      5.628727   -3.179453   -0.600149
  C      6.730205   -3.766477    1.458059
  H      7.042420   -4.669850    0.940700
  H      6.066540   -4.032261    2.284334
  H      7.593764   -3.253218    1.882052
  C      0.886055    0.315325    0.336034
  H      1.648396    0.927885    0.823715
  H      0.030156    0.282156    1.022255
  H      0.566871    0.825554   -0.573138
  C      1.083741   -1.725849   -1.303244
  H      0.330176   -2.516035   -1.197262
  H      1.969452   -2.202489   -1.731774
  H      0.709811   -0.991911   -2.017156
  H      5.212720   -1.097530    0.415816
  O      4.227671   -0.099454   -0.519740
  H      4.236035    0.801161   -0.168551

Dispersion correction           -0.029861680
FINAL SINGLE POINT ENERGY      -628.687158907992
Dispersion correction            ... done

DIPOLE MOMENT
-------------
                                X             Y             Z
Electronic contribution:      4.36411      -3.02704       2.41477
Nuclear contribution   :     -2.84452       4.91986      -3.64828
                        -----------------------------------------
Total Dipole Moment    :      1.51959       1.89283      -1.23351
                        -----------------------------------------
Magnitude (a.u.)       :      2.72277
Magnitude (Debye)      :      6.92074

Rotational constants in cm-1:     0.051486     0.016830     0.016304
Rotational constants in MHz :  1543.502640   504.535905   488.794252

                             ****ORCA TERMINATED NORMALLY****
TOTAL RUN TIME: 0 days 0 hours 44 minutes 37 seconds 151 msec
