                         Program Version 5.0.4 -  RELEASE  -
|  1> !  opt B3LYP def2-TZVP CPCM D3
|  2> %pal nprocs 102 end
|  3> %cpcm epsilon 78.4 end
|  4> *xyz -1 1
|  5> C   0.78615 -0.728 0.06421
|  6> H   1.90845 -0.87424 0.11243
|  7> N   0.19976 -1.38625 1.28212
|  8> O   0.94573 -2.00572 2.02647
|  9> O   -0.99858 -1.2989 1.49836
| 10> C   6.41874 -2.51612 0.96451
| 11> O   5.73762 -1.99401 1.87324
| 12> O   5.89607 -3.02358 -0.05138
| 13> C   7.91763 -2.56401 1.11232
| 14> H   8.41393 -2.81652 0.16866
| 15> H   8.18405 -3.32802 1.85494
| 16> H   8.34146 -1.61535 1.46296
| 17> C   0.44612 0.75537 0.10484
| 18> H   0.85044 1.25959 0.99396
| 19> H   -0.6363 0.94147 0.09015
| 20> H   0.86071 1.27269 -0.77471
| 21> C   0.20419 -1.41783 -1.1628
| 22> H   -0.88603 -1.29784 -1.23293
| 23> H   0.41569 -2.49639 -1.18698
| 24> H   0.62056 -0.98908 -2.08746
| 25> H   4.30399 -1.65729 0.45323
| 26> O   4.08553 -0.73282 0.22917
| 27> H   4.82569 -0.27261 0.64781
| 28> *
| 29>
| 30>                          ****END OF INPUT****
 Total Charge           Charge          ....   -1
 Multiplicity           Mult            ....    1
 Number of Electrons    NEL             ....   90
 Basis Dimension        Dim             ....  413

ORBITAL ENERGIES
----------------

  NO   OCC          E(Eh)            E(eV)
   0   2.0000     -19.165486      -521.5194
   1   2.0000     -19.165129      -521.5097
   2   2.0000     -19.096609      -519.6451
   3   2.0000     -19.049119      -518.3529
   4   2.0000     -19.047466      -518.3079
   5   2.0000     -14.548691      -395.8900
   6   2.0000     -10.237863      -278.5864
   7   2.0000     -10.230456      -278.3849
   8   2.0000     -10.170169      -276.7444
   9   2.0000     -10.169126      -276.7160
  10   2.0000     -10.145735      -276.0795
  11   2.0000      -1.238375       -33.6979
  12   2.0000      -1.059858       -28.8402
  13   2.0000      -1.022022       -27.8106
  14   2.0000      -0.981115       -26.6975
  15   2.0000      -0.921038       -25.0627
  16   2.0000      -0.840608       -22.8741
  17   2.0000      -0.705653       -19.2018
  18   2.0000      -0.697295       -18.9744
  19   2.0000      -0.697014       -18.9667
  20   2.0000      -0.584437       -15.9033
  21   2.0000      -0.540501       -14.7078
  22   2.0000      -0.534722       -14.5505
  23   2.0000      -0.519774       -14.1438
  24   2.0000      -0.497349       -13.5336
  25   2.0000      -0.485982       -13.2242
  26   2.0000      -0.456652       -12.4261
  27   2.0000      -0.427027       -11.6200
  28   2.0000      -0.420054       -11.4303
  29   2.0000      -0.416498       -11.3335
  30   2.0000      -0.411157       -11.1882
  31   2.0000      -0.405878       -11.0445
  32   2.0000      -0.386731       -10.5235
  33   2.0000      -0.385050       -10.4777
  34   2.0000      -0.365115        -9.9353
  35   2.0000      -0.357429        -9.7261
  36   2.0000      -0.351303        -9.5594
  37   2.0000      -0.339850        -9.2478
  38   2.0000      -0.325176        -8.8485
  39   2.0000      -0.316324        -8.6076
  40   2.0000      -0.300880        -8.1874
  41   2.0000      -0.294065        -8.0019
  42   2.0000      -0.244105        -6.6424
  43   2.0000      -0.237644        -6.4666
  44   2.0000      -0.220521        -6.0007
  45   0.0000      -0.077300        -2.1034
  46   0.0000       0.040472         1.1013
  47   0.0000       0.056797         1.5455
  48   0.0000       0.059664         1.6235
  49   0.0000       0.080724         2.1966

MULLIKEN ATOMIC CHARGES
-----------------------
   0 C :    0.049737
   1 H :    0.152266
   2 N :    0.445729
   3 O :   -0.357740
   4 O :   -0.361510
   5 C :    0.294116
   6 O :   -0.612430
   7 O :   -0.594614
   8 C :   -0.359893
   9 H :    0.097256
  10 H :    0.120815
  11 H :    0.110726
  12 C :   -0.387466
  13 H :    0.139356
  14 H :    0.134097
  15 H :    0.137914
  16 C :   -0.390009
  17 H :    0.134110
  18 H :    0.140738
  19 H :    0.139611
  20 H :    0.323551
  21 O :   -0.693404
  22 H :    0.337042
Sum of atomic charges:   -1.0000000

LOEWDIN ATOMIC CHARGES
----------------------
   0 C :   -0.288997
   1 H :    0.167428
   2 N :   -0.032346
   3 O :   -0.060249
   4 O :   -0.052962
   5 C :   -0.730580
   6 O :   -0.130221
   7 O :   -0.132945
   8 C :   -0.304496
   9 H :    0.117060
  10 H :    0.131210
  11 H :    0.121982
  12 C :   -0.279674
  13 H :    0.129718
  14 H :    0.128136
  15 H :    0.138095
  16 C :   -0.277625
  17 H :    0.128680
  18 H :    0.129838
  19 H :    0.138103
  20 H :    0.144254
  21 O :   -0.340011
  22 H :    0.155604

  Mayer bond orders larger than 0.100000
B(  0-C ,  1-H ) :   0.9300 B(  0-C ,  2-N ) :   0.8394 B(  0-C , 12-C ) :   0.9555
B(  0-C , 16-C ) :   0.9518 B(  2-N ,  3-O ) :   1.5973 B(  2-N ,  4-O ) :   1.6024
B(  3-O ,  4-O ) :   0.2043 B(  5-C ,  6-O ) :   1.6950 B(  5-C ,  7-O ) :   1.7377
B(  5-C ,  8-C ) :   0.9496 B(  8-C ,  9-H ) :   0.9713 B(  8-C , 10-H ) :   0.9515
B(  8-C , 11-H ) :   0.9633 B( 12-C , 13-H ) :   0.9680 B( 12-C , 14-H ) :   0.9615
B( 12-C , 15-H ) :   0.9618 B( 16-C , 17-H ) :   0.9620 B( 16-C , 18-H ) :   0.9675
B( 16-C , 19-H ) :   0.9622 B( 20-H , 21-O ) :   0.8307 B( 21-O , 22-H ) :   0.8846

Dispersion correction           -0.027456421
FINAL SINGLE POINT ENERGY      -628.688826403545
Dispersion correction            ... done
Dispersion correction           -0.027492032
FINAL SINGLE POINT ENERGY      -628.694178664316
Dispersion correction            ... done
Dispersion correction           -0.027396731
FINAL SINGLE POINT ENERGY      -628.696091372978
Dispersion correction            ... done
FINAL SINGLE POINT ENERGY      -628.697087218902
FINAL SINGLE POINT ENERGY      -628.697723364793
FINAL SINGLE POINT ENERGY      -628.698699653261
FINAL SINGLE POINT ENERGY      -628.699774270494
FINAL SINGLE POINT ENERGY      -628.700780090803
FINAL SINGLE POINT ENERGY      -628.701853817744
FINAL SINGLE POINT ENERGY      -628.702740490487
FINAL SINGLE POINT ENERGY      -628.706067437914
FINAL SINGLE POINT ENERGY      -628.706230642176
FINAL SINGLE POINT ENERGY      -628.706292747815
FINAL SINGLE POINT ENERGY      -628.706444303921
FINAL SINGLE POINT ENERGY      -628.706594202515
FINAL SINGLE POINT ENERGY      -628.706719288406
FINAL SINGLE POINT ENERGY      -628.706829160080
Dispersion correction           -0.030360072
FINAL SINGLE POINT ENERGY      -628.706818604393
Dispersion correction            ... done
Dispersion correction           -0.030668140
FINAL SINGLE POINT ENERGY      -628.706920947660
Dispersion correction            ... done

CARTESIAN COORDINATES (ANGSTROEM)
---------------------------------
  C      1.736976   -1.098582    0.311371
  H      2.784726   -0.822146    0.387982
  N      1.433535   -1.756025    1.650766
  O      2.354005   -1.900509    2.439293
  O      0.286521   -2.116504    1.869168
  C      5.432458   -1.602115    0.703313
  O      5.785332   -1.078512    1.783840
  O      5.072361   -0.969772   -0.337824
  C      5.386734   -3.126558    0.617034
  H      5.600504   -3.474802   -0.393301
  H      4.376860   -3.456433    0.876482
  H      6.080605   -3.583083    1.323008
  C      0.849358    0.122415    0.150539
  H      0.983457    0.819137    0.978600
  H     -0.199831   -0.163416    0.086886
  H      1.128775    0.628705   -0.773998
  C      1.549645   -2.143116   -0.778981
  H      0.505792   -2.448487   -0.851392
  H      2.171579   -3.019398   -0.593389
  H      1.853279   -1.702245   -1.728851
  H      4.707456    0.654273   -0.110229
  O      4.465427    1.619950   -0.053519
  H      4.496046    1.831765    0.886324

Dispersion correction           -0.030779550
FINAL SINGLE POINT ENERGY      -628.706958998464
Dispersion correction            ... done

DIPOLE MOMENT
-------------
                                X             Y             Z
Electronic contribution:     -2.01132      -0.37237       8.31584
Nuclear contribution   :     -2.79030      -0.03381      -8.54536
                        -----------------------------------------
Total Dipole Moment    :     -4.80162      -0.40617      -0.22952
                        -----------------------------------------
Magnitude (a.u.)       :      4.82423
Magnitude (Debye)      :     12.26223

Rotational constants in cm-1:     0.038076     0.020472     0.017208
Rotational constants in MHz :  1141.501659   613.743922   515.892982

                             ****ORCA TERMINATED NORMALLY****
TOTAL RUN TIME: 0 days 0 hours 48 minutes 50 seconds 923 msec
