                         Program Version 5.0.4 -  RELEASE  -
|  1> ! NEB-TS b3lyp D3 def2-TZVP CPCM
|  2>
|  3> %pal
|  4> nprocs 102
|  5> end
|  6>
|  7> %cpcm
|  8> epsilon 78.4
|  9> end
| 10>
| 11> %neb
| 12> NEB_End_XYZFile "end.xyz"
| 13> Nimages 6
| 14> end
| 15>
| 16>
| 17> *XYZfile 0 1 start.xyz
| 18>
| 19>                          ****END OF INPUT****
 Total Charge           Charge          ....    0
 Multiplicity           Mult            ....    1
 Number of Electrons    NEL             ....   42
Dispersion correction           -0.007738947
FINAL SINGLE POINT ENERGY      -321.457353848964
Dispersion correction            ... done
Dispersion correction           -0.007715596
FINAL SINGLE POINT ENERGY      -321.457361357321
Dispersion correction            ... done
Dispersion correction           -0.007702201
FINAL SINGLE POINT ENERGY      -321.457363719811
Dispersion correction            ... done
FINAL SINGLE POINT ENERGY      -321.457362349442
FINAL SINGLE POINT ENERGY      -321.457358925282
FINAL SINGLE POINT ENERGY      -321.457367308138
FINAL SINGLE POINT ENERGY      -321.457371393066
FINAL SINGLE POINT ENERGY      -321.457375668629
FINAL SINGLE POINT ENERGY      -321.457378206760
FINAL SINGLE POINT ENERGY      -321.457382026448
FINAL SINGLE POINT ENERGY      -321.457411538868
FINAL SINGLE POINT ENERGY      -321.457432662640
FINAL SINGLE POINT ENERGY      -321.457441465646
FINAL SINGLE POINT ENERGY      -321.457447406742
FINAL SINGLE POINT ENERGY      -321.457444142164
FINAL SINGLE POINT ENERGY      -321.457446832828
FINAL SINGLE POINT ENERGY      -321.457446095383
Dispersion correction            ... done
Dispersion correction           -0.007671799
FINAL SINGLE POINT ENERGY      -321.457448270528
Dispersion correction            ... done

CARTESIAN COORDINATES (ANGSTROEM)
---------------------------------
  C     -0.409562    0.245761   -0.423064
  H      0.038150   -0.187813   -1.309864
  H     -0.257456    1.323854   -0.392841
  H     -0.047301   -0.208246    0.493714
  N     -1.884447    0.031738   -0.490590
  O     -2.521375    0.150947    0.544368
  O     -2.381060   -0.227943   -1.575292
  H      2.536240   -0.972472    0.538527
  O      2.482274   -0.550311    1.405276
  H      2.444536    0.394485    1.209767

Dispersion correction           -0.007667029
FINAL SINGLE POINT ENERGY      -321.457452446821
Dispersion correction            ... done
                    ***********************HURRAY********************
 Multiplicity           Mult            ....    1
 Number of Electrons    NEL             ....   42
 Basis Dimension        Dim             ....  185

ORBITAL ENERGIES
----------------

  NO   OCC          E(Eh)            E(eV)
   0   2.0000     -19.171576      -521.6851
   1   2.0000     -19.170569      -521.6577
   2   2.0000     -19.124821      -520.4128
   3   2.0000     -14.559274      -396.1780
   4   2.0000     -10.219989      -278.1000
   5   2.0000      -1.243112       -33.8268
   6   2.0000      -1.069114       -29.0921
   7   2.0000      -1.008302       -27.4373
   8   2.0000      -0.813103       -22.1257
   9   2.0000      -0.624714       -16.9993
  10   2.0000      -0.555676       -15.1207
  11   2.0000      -0.544783       -14.8243
  12   2.0000      -0.534341       -14.5401
  13   2.0000      -0.525480       -14.2990
  14   2.0000      -0.439308       -11.9542
  15   2.0000      -0.421675       -11.4744
  16   2.0000      -0.393128       -10.6975
  17   2.0000      -0.332210        -9.0399
  18   2.0000      -0.325681        -8.8622
  19   2.0000      -0.316506        -8.6126
  20   2.0000      -0.308829        -8.4037
  21   0.0000      -0.081545        -2.2190
  22   0.0000       0.025817         0.7025
  23   0.0000       0.068526         1.8647
  24   0.0000       0.101414         2.7596
  25   0.0000       0.112162         3.0521

-------
TIMINGS
-------

Dispersion correction           -0.007668141
FINAL SINGLE POINT ENERGY      -321.457452417177
                    ***********************HURRAY************************

DIPOLE MOMENT
-------------
                                X             Y             Z
Electronic contribution:     -6.48037      -0.02353      -1.57299
Nuclear contribution   :      8.29197       0.68859       0.83871
                        -----------------------------------------
Total Dipole Moment    :      1.81161       0.66506      -0.73428
                        -----------------------------------------
Magnitude (a.u.)       :      2.06480
Magnitude (Debye)      :      5.24830

Rotational constants in cm-1:     0.362451     0.047408     0.043268
Rotational constants in MHz : 10866.005775  1421.253238  1297.134968

                             ****ORCA TERMINATED NORMALLY****
TOTAL RUN TIME: 0 days 0 hours 25 minutes 15 seconds 539 msec
