                         Program Version 5.0.4 -  RELEASE  -
|  1> !  NUMFREQ B3LYP def2-TZVP CPCM D3
|  2> %pal nprocs 102 end
|  3> %cpcm epsilon 78.4 end
|  4> *xyz -1 1
|  5> C   0.26930555286841 -1.76970258376672 2.0232664307381
|  6> H   1.17020061650014 -1.18457403254333 1.17621707697615
|  7> H   0.4581886458006 -1.37675228906351 3.01608160306961
|  8> H   0.37314413747293 -2.8437102876966 1.91738907470502
|  9> N   -0.98343173232112 -1.33931444511321 1.54505665698355
| 10> O   -1.45576648202069 -0.25919545101039 1.94928006068534
| 11> O   -1.555571036032 -1.99558630605567 0.65398983119331
| 12> C   -0.06136234558819 1.06175968358906 -1.53144638969986
| 13> O   0.72012665987857 1.31675564413544 -0.50595725908536
| 14> O   -0.12068007889057 -0.02676729180442 -2.08904729644178
| 15> C   -0.89756308368208 2.24370356899196 -1.95486384917674
| 16> H   -1.43951574187146 2.01941639262058 -2.87034493848149
| 17> H   -0.26474258134015 3.12034676903707 -2.09950433192662
| 18> H   -1.60898102960602 2.48093326372868 -1.16070300157051
| 19> H   1.25869421906755 0.44599069584925 -0.17580996621826
| 20> O   1.98367408801762 -0.62227166304553 0.40077161692524
| 21> H   2.15428019174646 -1.27103166785267 -0.2943753186757
| 22> *
| 23>
| 24>                          ****END OF INPUT****

CARTESIAN COORDINATES (ANGSTROEM)
---------------------------------
  C      0.269306   -1.769703    2.023266
  H      1.170201   -1.184574    1.176217
  H      0.458189   -1.376752    3.016082
  H      0.373144   -2.843710    1.917389
  N     -0.983432   -1.339314    1.545057
  O     -1.455766   -0.259195    1.949280
  O     -1.555571   -1.995586    0.653990
  C     -0.061362    1.061760   -1.531446
  O      0.720127    1.316756   -0.505957
  O     -0.120680   -0.026767   -2.089047
  C     -0.897563    2.243704   -1.954864
  H     -1.439516    2.019416   -2.870345
  H     -0.264743    3.120347   -2.099504
  H     -1.608981    2.480933   -1.160703
  H      1.258694    0.445991   -0.175810
  O      1.983674   -0.622272    0.400772
  H      2.154280   -1.271032   -0.294375

 Total Charge           Charge          ....   -1
 Multiplicity           Mult            ....    1
 Number of Electrons    NEL             ....   74
 Basis Dimension        Dim             ....  327

ORBITAL ENERGIES
----------------

  NO   OCC          E(Eh)            E(eV)
   0   2.0000     -19.125020      -520.4183
   1   2.0000     -19.124894      -520.4148
   2   2.0000     -19.124599      -520.4068
   3   2.0000     -19.093986      -519.5738
   4   2.0000     -19.082912      -519.2724
   5   2.0000     -14.517682      -395.0462
   6   2.0000     -10.285837      -279.8919
   7   2.0000     -10.166630      -276.6481
   8   2.0000     -10.161670      -276.5131
   9   2.0000      -1.189589       -32.3704
  10   2.0000      -1.073899       -29.2223
  11   2.0000      -1.012135       -27.5416
  12   2.0000      -0.986676       -26.8488
  13   2.0000      -0.944266       -25.6948
  14   2.0000      -0.788025       -21.4432
  15   2.0000      -0.734213       -19.9790
  16   2.0000      -0.582763       -15.8578
  17   2.0000      -0.579476       -15.7683
  18   2.0000      -0.515294       -14.0219
  19   2.0000      -0.503547       -13.7022
  20   2.0000      -0.499141       -13.5823
  21   2.0000      -0.480056       -13.0630
  22   2.0000      -0.457885       -12.4597
  23   2.0000      -0.451951       -12.2982
  24   2.0000      -0.446470       -12.1491
  25   2.0000      -0.404850       -11.0165
  26   2.0000      -0.400555       -10.8997
  27   2.0000      -0.386933       -10.5290
  28   2.0000      -0.373944       -10.1755
  29   2.0000      -0.351704        -9.5703
  30   2.0000      -0.302448        -8.2300
  31   2.0000      -0.297723        -8.1015
  32   2.0000      -0.292545        -7.9606
  33   2.0000      -0.280505        -7.6329
  34   2.0000      -0.268358        -7.3024
  35   2.0000      -0.262903        -7.1539
  36   2.0000      -0.227947        -6.2028
  37   0.0000      -0.045774        -1.2456
  38   0.0000       0.021582         0.5873
  39   0.0000       0.050177         1.3654
  40   0.0000       0.069670         1.8958
  41   0.0000       0.098725         2.6865

MULLIKEN ATOMIC CHARGES
-----------------------
   0 C :   -0.450098
   1 H :    0.334928
   2 H :    0.134242
   3 H :    0.137833
   4 N :    0.427004
   5 O :   -0.463219
   6 O :   -0.463091
   7 C :    0.337130
   8 O :   -0.456722
   9 O :   -0.469528
  10 C :   -0.354601
  11 H :    0.122438
  12 H :    0.135696
  13 H :    0.138700
  14 H :    0.360903
  15 O :   -0.795449
  16 H :    0.323833
Sum of atomic charges:   -1.0000000

LOEWDIN ATOMIC CHARGES
----------------------
   0 C :   -0.390291
   1 H :    0.151868
   2 H :    0.113961
   3 H :    0.113894
   4 N :   -0.086517
   5 O :   -0.171780
   6 O :   -0.171197
   7 C :   -0.576635
   8 O :    0.050374
   9 O :   -0.018012
  10 C :   -0.270260
  11 H :    0.127180
  12 H :    0.135528
  13 H :    0.139113
  14 H :    0.149369
  15 O :   -0.429955
  16 H :    0.133360

  Mayer bond orders larger than 0.100000
B(  0-C ,  1-H ) :   0.4647 B(  0-C ,  2-H ) :   0.9455 B(  0-C ,  3-H ) :   0.9475
B(  0-C ,  4-N ) :   1.0682 B(  1-H , 15-O ) :   0.4386 B(  4-N ,  5-O ) :   1.4682
B(  4-N ,  6-O ) :   1.4746 B(  5-O ,  6-O ) :   0.1309 B(  7-C ,  8-O ) :   1.3108
B(  7-C ,  9-O ) :   1.9306 B(  7-C , 10-C ) :   0.9752 B(  8-O , 14-H ) :   0.6240
B( 10-C , 11-H ) :   0.9784 B( 10-C , 12-H ) :   0.9504 B( 10-C , 13-H ) :   0.9469
B( 14-H , 15-O ) :   0.3055 B( 15-O , 16-H ) :   0.8915

Dispersion correction           -0.019039945
FINAL SINGLE POINT ENERGY      -550.064163661808
Dispersion correction            ... done

DIPOLE MOMENT
-------------
                                X             Y             Z
Electronic contribution:     -3.00208      -2.02829       0.74421
Nuclear contribution   :      3.43106       2.60863      -1.00186
                        -----------------------------------------
Total Dipole Moment    :      0.42898       0.58034      -0.25765
                        -----------------------------------------
Magnitude (a.u.)       :      0.76629
Magnitude (Debye)      :      1.94776

VIBRATIONAL FREQUENCIES
-----------------------

Scaling factor for frequencies =  1.000000000 (already applied!)

   0:         0.00 cm**-1
   1:         0.00 cm**-1
   2:         0.00 cm**-1
   3:         0.00 cm**-1
   4:         0.00 cm**-1
   5:         0.00 cm**-1
   6:     -1413.05 cm**-1 ***imaginary mode***
   7:        25.69 cm**-1
   8:        40.23 cm**-1
   9:        59.63 cm**-1
  10:        81.31 cm**-1
  11:        90.33 cm**-1
  12:        95.64 cm**-1
  13:       106.41 cm**-1
  14:       135.02 cm**-1
  15:       294.16 cm**-1
  16:       422.73 cm**-1
  17:       464.37 cm**-1
  18:       499.05 cm**-1
  19:       511.44 cm**-1
  20:       546.77 cm**-1
  21:       613.36 cm**-1
  22:       644.30 cm**-1
  23:       696.59 cm**-1
  24:       732.10 cm**-1
  25:       749.46 cm**-1
  26:       903.70 cm**-1
  27:       974.51 cm**-1
  28:      1013.94 cm**-1
  29:      1028.51 cm**-1
  30:      1064.65 cm**-1
  31:      1137.64 cm**-1
  32:      1215.07 cm**-1
  33:      1311.78 cm**-1
  34:      1387.98 cm**-1
  35:      1393.37 cm**-1
  36:      1404.55 cm**-1
  37:      1437.41 cm**-1
  38:      1450.17 cm**-1
  39:      1461.90 cm**-1
  40:      1462.79 cm**-1
  41:      1532.20 cm**-1
  42:      1558.77 cm**-1
  43:      1637.11 cm**-1
  44:      1903.04 cm**-1
  45:      3046.02 cm**-1
  46:      3103.63 cm**-1
  47:      3110.29 cm**-1
  48:      3142.95 cm**-1
  49:      3203.19 cm**-1
  50:      3783.15 cm**-1

IR SPECTRUM
-----------

 Mode   freq       eps      Int      T**2         TX        TY        TZ
       cm**-1   L/(mol*cm) km/mol    a.u.
----------------------------------------------------------------------------
  7:     25.69   0.001045    5.28  0.012696  ( 0.015287  0.092183  0.062964)
  8:     40.23   0.001672    8.45  0.012974  (-0.086202 -0.034018  0.066230)
  9:     59.63   0.001515    7.66  0.007929  ( 0.053949 -0.022056 -0.067322)
 10:     81.31   0.000060    0.30  0.000231  ( 0.008054  0.002631  0.012625)
 11:     90.33   0.000653    3.30  0.002255  ( 0.018184 -0.022447  0.037692)
 12:     95.64   0.000151    0.76  0.000493  (-0.011043 -0.014177  0.013049)
 13:    106.41   0.001199    6.06  0.003515  ( 0.022986 -0.026718  0.047675)
 14:    135.02   0.001982   10.02  0.004582  (-0.056411 -0.026470  0.026442)
 15:    294.16   0.056134  283.68  0.059551  ( 0.207451 -0.094087  0.087538)
 16:    422.73   0.034948  176.61  0.025798  ( 0.151380 -0.046437  0.026947)
 17:    464.37   0.014052   71.01  0.009443  ( 0.065271 -0.063478  0.033964)
 18:    499.05   0.001799    9.09  0.001125  ( 0.020240 -0.020721  0.016900)
 19:    511.44   0.003008   15.20  0.001835  (-0.015637  0.035966 -0.017245)
 20:    546.77   0.006329   31.98  0.003612  (-0.003729  0.041099 -0.043695)
 21:    613.36   0.001056    5.34  0.000537  ( 0.020450  0.000917 -0.010870)
 22:    644.30   0.000431    2.18  0.000209  (-0.002882 -0.006812  0.012405)
 23:    696.59   0.001874    9.47  0.000839  (-0.028928  0.000777 -0.001382)
 24:    732.10   0.006585   33.28  0.002807  ( 0.005358 -0.030980  0.042641)
 25:    749.46   0.004968   25.11  0.002069  ( 0.029650  0.020897 -0.027436)
 26:    903.70   0.011550   58.37  0.003988  ( 0.041063 -0.044224  0.018613)
 27:    974.51   0.012343   62.38  0.003953  (-0.041728  0.028873 -0.037118)
 28:   1013.94   0.010751   54.33  0.003309  ( 0.051571 -0.016293  0.019591)
 29:   1028.51   0.004088   20.66  0.001240  (-0.018255 -0.016463 -0.025219)
 30:   1064.65   0.002649   13.39  0.000776  ( 0.021608  0.005783 -0.016614)
 31:   1137.64   0.024611  124.37  0.006751  (-0.000382 -0.066115 -0.048782)
 32:   1215.07   0.020474  103.47  0.005258  (-0.032973 -0.040413  0.050376)
 33:   1311.78   0.168370  850.87  0.040054  (-0.139731  0.037169 -0.138376)
 34:   1387.98   0.069165  349.53  0.015550  ( 0.101407 -0.041715  0.059387)
 35:   1393.37   0.005079   25.67  0.001137  (-0.024826 -0.019818  0.011332)
 36:   1404.55   0.053560  270.67  0.011900  ( 0.059081 -0.070358  0.058816)
 37:   1437.41   0.120698  609.96  0.026204  ( 0.009195  0.125609  0.101693)
 38:   1450.17   0.008977   45.37  0.001932  ( 0.006877  0.038753  0.019561)
 39:   1461.90   0.014532   73.44  0.003102  ( 0.026467 -0.026173  0.041432)
 40:   1462.79   0.002801   14.15  0.000598  ( 0.022198 -0.004446 -0.009220)
 41:   1532.20   0.011575   58.49  0.002357  ( 0.020697 -0.021643  0.038218)
 42:   1558.77   0.006291   31.79  0.001260  ( 0.001871  0.030988  0.017197)
 43:   1637.11   0.170477  861.52  0.032496  ( 0.118450  0.010304  0.135498)
 44:   1903.04   0.617290  3119.53  0.101224  ( 0.167609 -0.255442  0.088774)
 45:   3046.02   0.000552    2.79  0.000057  (-0.004046  0.006308 -0.000657)
 46:   3103.63   0.001483    7.49  0.000149  (-0.007275 -0.005794  0.007912)
 47:   3110.29   0.000961    4.86  0.000096  (-0.008148  0.003586 -0.004145)
 48:   3142.95   0.003238   16.36  0.000321  ( 0.009427  0.005885  0.014070)
 49:   3203.19   0.001632    8.25  0.000159  (-0.000391 -0.010108 -0.007526)
 50:   3783.15   0.008296   41.93  0.000684  (-0.012360  0.014062  0.018271)

--------------------------
THERMOCHEMISTRY AT 298.15K
--------------------------

Temperature         ... 298.15 K
Pressure            ... 1.00 atm
Total Mass          ... 138.10 AMU

Throughout the following assumptions are being made:
  (1) The electronic state is orbitally nondegenerate
  (2) There are no thermally accessible electronically excited states
  (3) Hindered rotations indicated by low frequency modes are not
      treated as such but are treated as vibrations and this may
      cause some error
  (4) All equations used are the standard statistical mechanics
      equations for an ideal gas
  (5) All vibrations are strictly harmonic

freq.      25.69  E(vib)   ...       0.56
freq.      40.23  E(vib)   ...       0.54
freq.      59.63  E(vib)   ...       0.51
freq.      81.31  E(vib)   ...       0.48
freq.      90.33  E(vib)   ...       0.47
freq.      95.64  E(vib)   ...       0.47
freq.     106.41  E(vib)   ...       0.45
freq.     135.02  E(vib)   ...       0.42
freq.     294.16  E(vib)   ...       0.27
freq.     422.73  E(vib)   ...       0.18
freq.     464.37  E(vib)   ...       0.16
freq.     499.05  E(vib)   ...       0.14
freq.     511.44  E(vib)   ...       0.14
freq.     546.77  E(vib)   ...       0.12
freq.     613.36  E(vib)   ...       0.10
freq.     644.30  E(vib)   ...       0.09
freq.     696.59  E(vib)   ...       0.07
freq.     732.10  E(vib)   ...       0.06
freq.     749.46  E(vib)   ...       0.06
freq.     903.70  E(vib)   ...       0.03
freq.     974.51  E(vib)   ...       0.03
freq.    1013.94  E(vib)   ...       0.02
freq.    1028.51  E(vib)   ...       0.02
freq.    1064.65  E(vib)   ...       0.02
freq.    1137.64  E(vib)   ...       0.01
freq.    1215.07  E(vib)   ...       0.01
freq.    1311.78  E(vib)   ...       0.01
freq.    1387.98  E(vib)   ...       0.00
freq.    1393.37  E(vib)   ...       0.00
freq.    1404.55  E(vib)   ...       0.00
freq.    1437.41  E(vib)   ...       0.00
freq.    1450.17  E(vib)   ...       0.00
freq.    1461.90  E(vib)   ...       0.00
freq.    1462.79  E(vib)   ...       0.00
freq.    1532.20  E(vib)   ...       0.00
freq.    1558.77  E(vib)   ...       0.00
freq.    1637.11  E(vib)   ...       0.00
freq.    1903.04  E(vib)   ...       0.00
freq.    3046.02  E(vib)   ...       0.00
freq.    3103.63  E(vib)   ...       0.00
freq.    3110.29  E(vib)   ...       0.00
freq.    3142.95  E(vib)   ...       0.00
freq.    3203.19  E(vib)   ...       0.00
freq.    3783.15  E(vib)   ...       0.00

------------
INNER ENERGY
------------

The inner energy is: U= E(el) + E(ZPE) + E(vib) + E(rot) + E(trans)
    E(el)   - is the total energy from the electronic structure calculation
              = E(kin-el) + E(nuc-el) + E(el-el) + E(nuc-nuc)
    E(ZPE)  - the the zero temperature vibrational energy from the frequency calculation
    E(vib)  - the the finite temperature correction to E(ZPE) due to population
              of excited vibrational states
    E(rot)  - is the rotational thermal energy
    E(trans)- is the translational thermal energy

Summary of contributions to the inner energy U:
Electronic energy                ...   -550.06416366 Eh
Zero point energy                ...      0.11727304 Eh      73.59 kcal/mol
Thermal vibrational correction   ...      0.00871213 Eh       5.47 kcal/mol
Thermal rotational correction    ...      0.00141627 Eh       0.89 kcal/mol
Thermal translational correction ...      0.00141627 Eh       0.89 kcal/mol
-----------------------------------------------------------------------
Total thermal energy                   -549.93534594 Eh

Summary of corrections to the electronic energy:
(perhaps to be used in another calculation)
Total thermal correction                  0.01154468 Eh       7.24 kcal/mol
Non-thermal (ZPE) correction              0.11727304 Eh      73.59 kcal/mol
-----------------------------------------------------------------------
Total correction                          0.12881772 Eh      80.83 kcal/mol

--------
ENTHALPY
--------

The enthalpy is H = U + kB*T
                kB is Boltzmann's constant
Total free energy                 ...   -549.93534594 Eh
Thermal Enthalpy correction       ...      0.00094421 Eh       0.59 kcal/mol
-----------------------------------------------------------------------
Total Enthalpy                    ...   -549.93440173 Eh

Note: Only C1 symmetry has been detected, increase convergence thresholds
      if your molecule has a higher symmetry. Symmetry factor of 1.0 is
      used for the rotational entropy correction.

Note: Rotational entropy computed according to Herzberg
Infrared and Raman Spectra, Chapter V,1, Van Nostrand Reinhold, 1945
Point Group:  C1, Symmetry Number:   1
Rotational constants in cm-1:     0.066251     0.028227     0.024561

Vibrational entropy computed according to the QRRHO of S. Grimme
Chem.Eur.J. 2012 18 9955

-------
ENTROPY
-------

The entropy contributions are T*S = T*(S(el)+S(vib)+S(rot)+S(trans))
     S(el)   - electronic entropy
     S(vib)  - vibrational entropy
     S(rot)  - rotational entropy
     S(trans)- translational entropy
The entropies will be listed as multiplied by the temperature to get
units of energy

Electronic entropy                ...      0.00000000 Eh      0.00 kcal/mol
Vibrational entropy               ...      0.01637053 Eh     10.27 kcal/mol
Rotational entropy                ...      0.01422623 Eh      8.93 kcal/mol
Translational entropy             ...      0.01932842 Eh     12.13 kcal/mol
-----------------------------------------------------------------------
Final entropy term                ...      0.04992517 Eh     31.33 kcal/mol

In case the symmetry of your molecule has not been determined correctly
or in case you have a reason to use a different symmetry number we print
out the resulting rotational entropy values for sn=1,12 :
 --------------------------------------------------------
|  sn= 1 | S(rot)=       0.01422623 Eh      8.93 kcal/mol|
|  sn= 2 | S(rot)=       0.01357177 Eh      8.52 kcal/mol|
|  sn= 3 | S(rot)=       0.01318894 Eh      8.28 kcal/mol|
|  sn= 4 | S(rot)=       0.01291732 Eh      8.11 kcal/mol|
|  sn= 5 | S(rot)=       0.01270663 Eh      7.97 kcal/mol|
|  sn= 6 | S(rot)=       0.01253449 Eh      7.87 kcal/mol|
|  sn= 7 | S(rot)=       0.01238894 Eh      7.77 kcal/mol|
|  sn= 8 | S(rot)=       0.01226286 Eh      7.70 kcal/mol|
|  sn= 9 | S(rot)=       0.01215165 Eh      7.63 kcal/mol|
|  sn=10 | S(rot)=       0.01205217 Eh      7.56 kcal/mol|
|  sn=11 | S(rot)=       0.01196218 Eh      7.51 kcal/mol|
|  sn=12 | S(rot)=       0.01188003 Eh      7.45 kcal/mol|
 --------------------------------------------------------

-------------------
GIBBS FREE ENERGY
-------------------

                             ****ORCA TERMINATED NORMALLY****
TOTAL RUN TIME: 0 days 0 hours 5 minutes 49 seconds 632 msec
