                         Program Version 5.0.0 -  RELEASE  -
|  1> !  NUMFREQ B3LYP def2-TZVP CPCM D3
|  2> %pal nprocs 18 end
|  3> %cpcm epsilon 78.4 end
|  4> *xyz 0 1
|  5> C   0.53718366791371 -0.85510417312979 0.39442541633536
|  6> H   0.67897126752168 -1.75667571143495 -0.192162478266
|  7> H   1.01696030764946 -0.00980255047892 -0.09617063360082
|  8> H   0.87997962124491 -0.96189468995881 1.41630267011959 M = 2
|  9> N   -0.92465725062461 -0.55335603714967 0.42208244154224
| 10> O   -1.40918389993222 -0.14173520998524 1.46418776252197
| 11> O   -1.55455538458488 -0.71487559149105 -0.61108572696602
| 12> H   3.66652000177299 -0.8963847885935 -0.24616489632751
| 13> O   3.79612583755679 -1.51054577273253 0.4871474076621
| 14> H   3.61434583148215 -0.98326547504551 1.27472803697909
| 15> *
| 16>
| 17>                          ****END OF INPUT****

CARTESIAN COORDINATES (ANGSTROEM)
---------------------------------
  C      0.537184   -0.855104    0.394425
  H      0.678971   -1.756676   -0.192162
  H      1.016960   -0.009803   -0.096171
  H      0.879980   -0.961895    1.416303
  N     -0.924657   -0.553356    0.422082
  O     -1.409184   -0.141735    1.464188
  O     -1.554555   -0.714876   -0.611086
  H      3.666520   -0.896385   -0.246165
  O      3.796126   -1.510546    0.487147
  H      3.614346   -0.983265    1.274728

 Total Charge           Charge          ....    0
 Multiplicity           Mult            ....    1
 Number of Electrons    NEL             ....   42
 Basis Dimension        Dim             ....  185

ORBITAL ENERGIES
----------------

  NO   OCC          E(Eh)            E(eV)
   0   2.0000     -19.171459      -521.6819
   1   2.0000     -19.170360      -521.6520
   2   2.0000     -19.124304      -520.3988
   3   2.0000     -14.558895      -396.1677
   4   2.0000     -10.220146      -278.1043
   5   2.0000      -1.243022       -33.8244
   6   2.0000      -1.069125       -29.0924
   7   2.0000      -1.008053       -27.4305
   8   2.0000      -0.812655       -22.1135
   9   2.0000      -0.624534       -16.9944
  10   2.0000      -0.555443       -15.1144
  11   2.0000      -0.544576       -14.8187
  12   2.0000      -0.534223       -14.5370
  13   2.0000      -0.525143       -14.2899
  14   2.0000      -0.439145       -11.9497
  15   2.0000      -0.421501       -11.4696
  16   2.0000      -0.392717       -10.6864
  17   2.0000      -0.332107        -9.0371
  18   2.0000      -0.326181        -8.8758
  19   2.0000      -0.315112        -8.5746
  20   2.0000      -0.309316        -8.4169
  21   0.0000      -0.081291        -2.2120
  22   0.0000       0.024436         0.6649
  23   0.0000       0.069959         1.9037
  24   0.0000       0.094833         2.5805
  25   0.0000       0.119030         3.2390

MULLIKEN ATOMIC CHARGES
-----------------------
   0 C :   -0.270577
   1 H :    0.171930
   2 H :    0.179424
   3 H :    0.163535
   4 N :    0.431318
   5 O :   -0.348573
   6 O :   -0.347832
   7 H :    0.361171
   8 O :   -0.701113
   9 H :    0.360717
Sum of atomic charges:   -0.0000000

LOEWDIN ATOMIC CHARGES
----------------------
   0 C :   -0.243266
   1 H :    0.135588
   2 H :    0.143890
   3 H :    0.131113
   4 N :   -0.067667
   5 O :   -0.058957
   6 O :   -0.060540
   7 H :    0.173203
   8 O :   -0.326309
   9 H :    0.172944

  Mayer bond orders larger than 0.100000
B(  0-C ,  1-H ) :   0.9462 B(  0-C ,  2-H ) :   0.9358 B(  0-C ,  3-H ) :   0.9529
B(  0-C ,  4-N ) :   0.8745 B(  4-N ,  5-O ) :   1.6191 B(  4-N ,  6-O ) :   1.6094
B(  5-O ,  6-O ) :   0.2110 B(  7-H ,  8-O ) :   0.8804 B(  8-O ,  9-H ) :   0.8805

Dispersion correction           -0.007836300
FINAL SINGLE POINT ENERGY      -321.457590778107
Dispersion correction            ... done

DIPOLE MOMENT
-------------
                                X             Y             Z
Electronic contribution:     -6.05751       1.08017       0.98283
Nuclear contribution   :      7.59285      -0.53793      -0.97623
                        -----------------------------------------
Total Dipole Moment    :      1.53534       0.54224       0.00660
                        -----------------------------------------
Magnitude (a.u.)       :      1.62829
Magnitude (Debye)      :      4.13879

VIBRATIONAL FREQUENCIES
-----------------------

Scaling factor for frequencies =  1.000000000 (already applied!)

   0:         0.00 cm**-1
   1:         0.00 cm**-1
   2:         0.00 cm**-1
   3:         0.00 cm**-1
   4:         0.00 cm**-1
   5:         0.00 cm**-1
   6:       -52.78 cm**-1 ***imaginary mode***
   7:        10.85 cm**-1
   8:        31.62 cm**-1
   9:        41.20 cm**-1
  10:        65.10 cm**-1
  11:       182.74 cm**-1
  12:       258.00 cm**-1
  13:       461.42 cm**-1
  14:       614.30 cm**-1
  15:       649.94 cm**-1
  16:       908.63 cm**-1
  17:       952.21 cm**-1
  18:      1077.09 cm**-1
  19:      1289.97 cm**-1
  20:      1315.10 cm**-1
  21:      1410.65 cm**-1
  22:      1441.05 cm**-1
  23:      1559.80 cm**-1
  24:      1600.13 cm**-1
  25:      2339.97 cm**-1
  26:      3112.96 cm**-1
  27:      3180.31 cm**-1
  28:      3768.25 cm**-1
  29:      3849.93 cm**-1

IR SPECTRUM
-----------

 Mode   freq       eps      Int      T**2         TX        TY        TZ
       cm**-1   L/(mol*cm) km/mol    a.u.
----------------------------------------------------------------------------
  7:     10.85   0.000077    0.39  0.002217  ( 0.006809  0.017558 -0.043159)
  8:     31.62   0.002276   11.50  0.022461  ( 0.075633  0.128420  0.015775)
  9:     41.20   0.001390    7.02  0.010527  ( 0.010417  0.090844 -0.046538)
 10:     65.10   0.004157   21.01  0.019925  (-0.130529 -0.033948 -0.041653)
 11:    182.74   0.012330   62.31  0.021056  (-0.115102 -0.025652 -0.084553)
 12:    258.00   0.069736  352.42  0.084349  (-0.280925 -0.073652 -0.002371)
 13:    461.42   0.000202    1.02  0.000136  (-0.001821 -0.004280 -0.010712)
 14:    614.30   0.001029    5.20  0.000523  (-0.011787 -0.017887  0.008005)
 15:    649.94   0.006233   31.50  0.002993  (-0.051402  0.018335 -0.003790)
 16:    908.63   0.003357   16.96  0.001153  ( 0.025191 -0.010797 -0.020041)
 17:    952.21   0.003344   16.90  0.001096  ( 0.021750  0.006887  0.023990)
 18:   1077.09   0.001911    9.66  0.000554  ( 0.012231  0.017111 -0.010548)
 19:   1289.97   0.003140   15.87  0.000760  (-0.011761 -0.019967 -0.014918)
 20:   1315.10   0.000936    4.73  0.000222  ( 0.008330 -0.010944 -0.005730)
 21:   1410.65   0.023916  120.86  0.005291  (-0.055230  0.016055  0.044525)
 22:   1441.05   0.020065  101.40  0.004345  (-0.055980  0.007051 -0.034081)
 23:   1559.80   0.129620  655.05  0.025933  (-0.011644 -0.042958 -0.154763)
 24:   1600.13   0.024767  125.16  0.004830  (-0.020645  0.066284  0.003210)
 25:   2339.97   0.000118    0.60  0.000016  (-0.003780  0.000928 -0.000750)
 26:   3112.96   0.000396    2.00  0.000040  ( 0.005822  0.001316 -0.002023)
 27:   3180.31   0.000152    0.77  0.000015  (-0.003029 -0.002288  0.000681)
 28:   3768.25   0.004816   24.34  0.000399  ( 0.002834 -0.019763 -0.000472)
 29:   3849.93   0.021410  108.20  0.001735  (-0.001531 -0.002035  0.041580)

--------------------------
THERMOCHEMISTRY AT 298.15K
--------------------------

Temperature         ... 298.15 K
Pressure            ... 1.00 atm
Total Mass          ... 80.05 AMU

Throughout the following assumptions are being made:
  (1) The electronic state is orbitally nondegenerate
  (2) There are no thermally accessible electronically excited states
  (3) Hindered rotations indicated by low frequency modes are not
      treated as such but are treated as vibrations and this may
      cause some error
  (4) All equations used are the standard statistical mechanics
      equations for an ideal gas
  (5) All vibrations are strictly harmonic

freq.      10.85  E(vib)   ...       0.58
freq.      31.62  E(vib)   ...       0.55
freq.      41.20  E(vib)   ...       0.54
freq.      65.10  E(vib)   ...       0.50
freq.     182.74  E(vib)   ...       0.37
freq.     258.00  E(vib)   ...       0.30
freq.     461.42  E(vib)   ...       0.16
freq.     614.30  E(vib)   ...       0.10
freq.     649.94  E(vib)   ...       0.08
freq.     908.63  E(vib)   ...       0.03
freq.     952.21  E(vib)   ...       0.03
freq.    1077.09  E(vib)   ...       0.02
freq.    1289.97  E(vib)   ...       0.01
freq.    1315.10  E(vib)   ...       0.01
freq.    1410.65  E(vib)   ...       0.00
freq.    1441.05  E(vib)   ...       0.00
freq.    1559.80  E(vib)   ...       0.00
freq.    1600.13  E(vib)   ...       0.00
freq.    2339.97  E(vib)   ...       0.00
freq.    3112.96  E(vib)   ...       0.00
freq.    3180.31  E(vib)   ...       0.00
freq.    3768.25  E(vib)   ...       0.00
freq.    3849.93  E(vib)   ...       0.00

------------
INNER ENERGY
------------

The inner energy is: U= E(el) + E(ZPE) + E(vib) + E(rot) + E(trans)
    E(el)   - is the total energy from the electronic structure calculation
              = E(kin-el) + E(nuc-el) + E(el-el) + E(nuc-nuc)
    E(ZPE)  - the the zero temperature vibrational energy from the frequency calculation
    E(vib)  - the the finite temperature correction to E(ZPE) due to population
              of excited vibrational states
    E(rot)  - is the rotational thermal energy
    E(trans)- is the translational thermal energy

Summary of contributions to the inner energy U:
Electronic energy                ...   -321.45759078 Eh
Zero point energy                ...      0.06862122 Eh      43.06 kcal/mol
Thermal vibrational correction   ...      0.00522212 Eh       3.28 kcal/mol
Thermal rotational correction    ...      0.00141627 Eh       0.89 kcal/mol
Thermal translational correction ...      0.00141627 Eh       0.89 kcal/mol
-----------------------------------------------------------------------
Total thermal energy                   -321.38091490 Eh

Summary of corrections to the electronic energy:
(perhaps to be used in another calculation)
Total thermal correction                  0.00805466 Eh       5.05 kcal/mol
Non-thermal (ZPE) correction              0.06862122 Eh      43.06 kcal/mol
-----------------------------------------------------------------------
Total correction                          0.07667588 Eh      48.11 kcal/mol

--------
ENTHALPY
--------

The enthalpy is H = U + kB*T
                kB is Boltzmann's constant
Total free energy                 ...   -321.38091490 Eh
Thermal Enthalpy correction       ...      0.00094421 Eh       0.59 kcal/mol
-----------------------------------------------------------------------
Total Enthalpy                    ...   -321.37997069 Eh

Note: Only C1 symmetry has been detected, increase convergence thresholds
      if your molecule has a higher symmetry. Symmetry factor of 1.0 is
      used for the rotational entropy correction.

Note: Rotational entropy computed according to Herzberg
Infrared and Raman Spectra, Chapter V,1, Van Nostrand Reinhold, 1945
Point Group:  C1, Symmetry Number:   1
Rotational constants in cm-1:     0.390918     0.047173     0.042578

Vibrational entropy computed according to the QRRHO of S. Grimme
Chem.Eur.J. 2012 18 9955

-------
ENTROPY
-------

The entropy contributions are T*S = T*(S(el)+S(vib)+S(rot)+S(trans))
     S(el)   - electronic entropy
     S(vib)  - vibrational entropy
     S(rot)  - rotational entropy
     S(trans)- translational entropy
The entropies will be listed as multiplied by the temperature to get
units of energy

Electronic entropy                ...      0.00000000 Eh      0.00 kcal/mol
Vibrational entropy               ...      0.01057207 Eh      6.63 kcal/mol
Rotational entropy                ...      0.01288607 Eh      8.09 kcal/mol
Translational entropy             ...      0.01855604 Eh     11.64 kcal/mol
-----------------------------------------------------------------------
Final entropy term                ...      0.04201418 Eh     26.36 kcal/mol

In case the symmetry of your molecule has not been determined correctly
or in case you have a reason to use a different symmetry number we print
out the resulting rotational entropy values for sn=1,12 :
 --------------------------------------------------------
|  sn= 1 | S(rot)=       0.01288607 Eh      8.09 kcal/mol|
|  sn= 2 | S(rot)=       0.01223162 Eh      7.68 kcal/mol|
|  sn= 3 | S(rot)=       0.01184878 Eh      7.44 kcal/mol|
|  sn= 4 | S(rot)=       0.01157716 Eh      7.26 kcal/mol|
|  sn= 5 | S(rot)=       0.01136647 Eh      7.13 kcal/mol|
|  sn= 6 | S(rot)=       0.01119433 Eh      7.02 kcal/mol|
|  sn= 7 | S(rot)=       0.01104878 Eh      6.93 kcal/mol|
|  sn= 8 | S(rot)=       0.01092270 Eh      6.85 kcal/mol|
|  sn= 9 | S(rot)=       0.01081149 Eh      6.78 kcal/mol|
|  sn=10 | S(rot)=       0.01071202 Eh      6.72 kcal/mol|
|  sn=11 | S(rot)=       0.01062202 Eh      6.67 kcal/mol|
|  sn=12 | S(rot)=       0.01053987 Eh      6.61 kcal/mol|
 --------------------------------------------------------

-------------------
GIBBS FREE ENERGY
-------------------

The Gibbs free energy is G = H - T*S

Total enthalpy                    ...   -321.37997069 Eh
Total entropy correction          ...     -0.04201418 Eh    -26.36 kcal/mol
-----------------------------------------------------------------------
Final Gibbs free energy         ...   -321.42198487 Eh

For completeness - the Gibbs free energy minus the electronic energy
G-E(el)                           ...      0.03560591 Eh     22.34 kcal/mol

                             ****ORCA TERMINATED NORMALLY****
TOTAL RUN TIME: 0 days 0 hours 3 minutes 57 seconds 899 msec
