                         Program Version 5.0.4 -  RELEASE  -
|  1> !  opt B3LYP def2-TZVP CPCM D3
|  2> %pal nprocs 102 end
|  3> %cpcm epsilon 78.4 end
|  4> *xyz -1 1
|  5> C   0.11175832 1.08718009 0.93417962
|  6> C   0.24293951 1.32294199 -0.42266506
|  7> C   0.17506409 0.26973435 -1.35761678
|  8> C   0.02220332 -1.04733242 -0.86775228
|  9> C   -0.10948162 -1.29830062 0.48412144
| 10> C   -0.08028398 -0.22614694 1.39190241
| 11> H   0.15551304 1.9172039 1.64859207
| 12> H   0.40346087 2.3479365 -0.7669491
| 13> H   -0.01314582 -1.88463015 -1.56697483
| 14> C   0.2467326 0.48405769 -2.77956527
| 15> H   2.24644911 1.25564327 -2.92751848
| 16> C   0.63776806 -0.64533444 -3.67671897
| 17> H   0.96681657 -0.30380525 -4.67049986
| 18> H   -0.20243896 -1.33548897 -3.84606453
| 19> H   1.46828699 -1.23382166 -3.25918048
| 20> N   -0.14421173 1.64092332 -3.36082237
| 21> O   -0.15375724 1.76847218 -4.60934693
| 22> O   -0.50537527 2.63346471 -2.68674929
| 23> O   5.27864752 2.83647514 -3.03075641
| 24> H   6.00058933 2.23261582 -2.83170762
| 25> H   -0.24622217 -2.32250148 0.84724683
| 26> N   -0.24939549 -0.47425743 2.78636538
| 27> O   -0.37643981 -1.62796617 3.18852407
| 28> O   -0.27219602 0.46933002 3.5727237
| 29> H   3.37091739 0.52658175 -2.18533791
| 30> H   4.48619923 2.28340503 -2.98839786
| 31> O   3.20203785 1.13067803 -2.92127008
| 32> *
| 33>
| 34>                          ****END OF INPUT****
 Total Charge           Charge          ....   -1
 Multiplicity           Mult            ....    1
 Number of Electrons    NEL             ....  122
 Basis Dimension        Dim             ....  562

ORBITAL ENERGIES
----------------

  NO   OCC          E(Eh)            E(eV)
   0   2.0000     -19.146487      -521.0024
   1   2.0000     -19.146441      -521.0011
   2   2.0000     -19.133086      -520.6377
   3   2.0000     -19.098949      -519.7088
   4   2.0000     -19.095293      -519.6093
   5   2.0000     -19.093505      -519.5607
   6   2.0000     -14.542289      -395.7158
   7   2.0000     -14.493161      -394.3790
   8   2.0000     -10.221059      -278.1291
   9   2.0000     -10.198596      -277.5179
  10   2.0000     -10.192070      -277.3403
  11   2.0000     -10.190890      -277.3082
  12   2.0000     -10.188565      -277.2450
  13   2.0000     -10.179159      -276.9890
  14   2.0000     -10.173825      -276.8438
  15   2.0000     -10.158805      -276.4351
  16   2.0000      -1.225204       -33.3395
  17   2.0000      -1.169715       -31.8296
  18   2.0000      -1.043068       -28.3833
  19   2.0000      -1.021189       -27.7880
  20   2.0000      -0.986942       -26.8561
  21   2.0000      -0.982541       -26.7363
  22   2.0000      -0.881768       -23.9941
  23   2.0000      -0.838317       -22.8118
  24   2.0000      -0.788999       -21.4697
  25   2.0000      -0.757167       -20.6036
  26   2.0000      -0.702467       -19.1151
  27   2.0000      -0.691389       -18.8137
  28   2.0000      -0.613947       -16.7063
  29   2.0000      -0.595017       -16.1912
  30   2.0000      -0.556314       -15.1381
  31   2.0000      -0.544388       -14.8135
  32   2.0000      -0.539896       -14.6913
  33   2.0000      -0.533747       -14.5240
  34   2.0000      -0.519233       -14.1290
  35   2.0000      -0.514386       -13.9972
  36   2.0000      -0.510732       -13.8977
  37   2.0000      -0.494207       -13.4481
  38   2.0000      -0.481237       -13.0951
  39   2.0000      -0.457134       -12.4392
  40   2.0000      -0.446499       -12.1499
  41   2.0000      -0.428983       -11.6732
  42   2.0000      -0.426800       -11.6138
  43   2.0000      -0.416326       -11.3288
  44   2.0000      -0.400938       -10.9101
  45   2.0000      -0.384274       -10.4566
  46   2.0000      -0.379586       -10.3291
  47   2.0000      -0.366227        -9.9655
  48   2.0000      -0.362605        -9.8670
  49   2.0000      -0.350485        -9.5372
  50   2.0000      -0.325642        -8.8612
  51   2.0000      -0.318503        -8.6669
  52   2.0000      -0.313771        -8.5381
  53   2.0000      -0.298479        -8.1220
  54   2.0000      -0.289156        -7.8683
  55   2.0000      -0.286555        -7.7976
  56   2.0000      -0.285493        -7.7687
  57   2.0000      -0.271356        -7.3840
  58   2.0000      -0.266678        -7.2567
  59   2.0000      -0.239814        -6.5257
  60   2.0000      -0.191941        -5.2230
  61   0.0000      -0.092851        -2.5266
  62   0.0000      -0.019201        -0.5225
  63   0.0000      -0.015061        -0.4098
  64   0.0000       0.023261         0.6330
  65   0.0000       0.042377         1.1531

MULLIKEN ATOMIC CHARGES
-----------------------
   0 C :   -0.204409
   1 C :   -0.158221
   2 C :    0.216143
   3 C :   -0.219633
   4 C :   -0.200672
   5 C :    0.141036
   6 H :    0.153452
   7 H :    0.143854
   8 H :    0.157423
   9 C :   -0.264706
  10 H :    0.400038
  11 C :   -0.376576
  12 H :    0.133719
  13 H :    0.128144
  14 H :    0.132915
  15 N :    0.458627
  16 O :   -0.528900
  17 O :   -0.529140
  18 O :   -0.748977
  19 H :    0.344104
  20 H :    0.155252
  21 N :    0.424936
  22 O :   -0.398892
  23 O :   -0.398907
  24 H :    0.364566
  25 H :    0.365207
  26 O :   -0.690383
Sum of atomic charges:   -1.0000000

LOEWDIN ATOMIC CHARGES
----------------------
   0 C :   -0.103504
   1 C :   -0.110811
   2 C :   -0.125207
   3 C :   -0.100687
   4 C :   -0.100598
   5 C :   -0.192971
   6 H :    0.159667
   7 H :    0.156048
   8 H :    0.161474
   9 C :   -0.273691
  10 H :    0.159431
  11 C :   -0.299244
  12 H :    0.129145
  13 H :    0.127022
  14 H :    0.129637
  15 N :   -0.062647
  16 O :   -0.224192
  17 O :   -0.209735
  18 O :   -0.367242
  19 H :    0.161714
  20 H :    0.160585
  21 N :   -0.029555
  22 O :   -0.095225
  23 O :   -0.094915
  24 H :    0.180016
  25 H :    0.124981
  26 O :   -0.259495

  Mayer bond orders larger than 0.100000
B(  0-C ,  1-C ) :   1.5018 B(  0-C ,  5-C ) :   1.2921 B(  0-C ,  6-H ) :   0.9565
B(  1-C ,  2-C ) :   1.2501 B(  1-C ,  7-H ) :   0.9516 B(  2-C ,  3-C ) :   1.2746
B(  2-C ,  9-C ) :   1.1121 B(  3-C ,  4-C ) :   1.5256 B(  3-C ,  8-H ) :   0.9643
B(  4-C ,  5-C ) :   1.2934 B(  4-C , 20-H ) :   0.9548 B(  5-C , 21-N ) :   1.0761
B(  9-C , 11-C ) :   0.9775 B(  9-C , 15-N ) :   1.3450 B(  9-C , 16-O ) :   0.1036
B(  9-C , 17-O ) :   0.1440 B( 10-H , 26-O ) :   0.8489 B( 11-C , 12-H ) :   0.9538
B( 11-C , 13-H ) :   0.9647 B( 11-C , 14-H ) :   0.9745 B( 15-N , 16-O ) :   1.3736
B( 15-N , 17-O ) :   1.3624 B( 18-O , 19-H ) :   0.8919 B( 18-O , 25-H ) :   0.8299
B( 21-N , 22-O ) :   1.5500 B( 21-N , 23-O ) :   1.5500 B( 22-O , 23-O ) :   0.1445
B( 24-H , 26-O ) :   0.8711

Dispersion correction           -0.049080980
FINAL SINGLE POINT ENERGY      -872.262845825342
Dispersion correction            ... done
Dispersion correction           -0.048847067
FINAL SINGLE POINT ENERGY      -872.267020992003
Dispersion correction            ... done
Dispersion correction           -0.048739495
FINAL SINGLE POINT ENERGY      -872.267187618525
Dispersion correction            ... done
FINAL SINGLE POINT ENERGY      -872.268005213690
FINAL SINGLE POINT ENERGY      -872.268524135208
FINAL SINGLE POINT ENERGY      -872.268828813427
FINAL SINGLE POINT ENERGY      -872.269086015729
FINAL SINGLE POINT ENERGY      -872.269259990063
FINAL SINGLE POINT ENERGY      -872.269396832659
FINAL SINGLE POINT ENERGY      -872.269494510799
FINAL SINGLE POINT ENERGY      -872.271647339484
FINAL SINGLE POINT ENERGY      -872.271679817589
FINAL SINGLE POINT ENERGY      -872.271725322739
FINAL SINGLE POINT ENERGY      -872.271783184860
FINAL SINGLE POINT ENERGY      -872.271854747211
FINAL SINGLE POINT ENERGY      -872.271912560481
FINAL SINGLE POINT ENERGY      -872.271958870900
Dispersion correction           -0.050360060
FINAL SINGLE POINT ENERGY      -872.271987931704
Dispersion correction            ... done
Dispersion correction           -0.050352870
FINAL SINGLE POINT ENERGY      -872.272022420189
Dispersion correction            ... done

CARTESIAN COORDINATES (ANGSTROEM)
---------------------------------
  C      0.701935    1.239939    0.684229
  C      0.590926    1.438921   -0.672859
  C      0.269737    0.377465   -1.566178
  C      0.038125   -0.892158   -0.962341
  C      0.135554   -1.093055    0.392816
  C      0.477772   -0.026563    1.229215
  H      0.967029    2.062429    1.331797
  H      0.771148    2.419743   -1.073537
  H     -0.249773   -1.732713   -1.574066
  C      0.198426    0.485516   -2.995562
  H      2.443479    0.475657   -2.990739
  C      0.098809   -0.725857   -3.877905
  H      0.634746   -0.552738   -4.808983
  H     -0.932441   -0.977419   -4.150221
  H      0.534084   -1.598639   -3.394619
  N      0.103875    1.690123   -3.647005
  O     -0.048393    1.696212   -4.907005
  O      0.149274    2.799720   -3.035722
  O      3.883482    2.812320   -1.502547
  H      3.258472    2.746326   -0.771426
  H     -0.059149   -2.067647    0.814457
  N      0.592806   -0.234492    2.639611
  O      0.406296   -1.369454    3.095059
  O      0.878401    0.726575    3.363961
  H      3.648788   -0.335306   -2.497281
  H      3.753758    1.991205   -2.016995
  O      3.415272    0.450948   -3.008395

Dispersion correction           -0.050265051
FINAL SINGLE POINT ENERGY      -872.272065115722
Dispersion correction            ... done

DIPOLE MOMENT
-------------
                                X             Y             Z
Electronic contribution:     -5.90629       1.47034      10.80186
Nuclear contribution   :      5.28189      -4.30432      -9.75720
                        -----------------------------------------
Total Dipole Moment    :     -0.62439      -2.83398       1.04466
                        -----------------------------------------
Magnitude (a.u.)       :      3.08426
Magnitude (Debye)      :      7.83956

Rotational constants in cm-1:     0.025404     0.009119     0.008145
Rotational constants in MHz :   761.599593   273.366259   244.177299

                             ****ORCA TERMINATED NORMALLY****
TOTAL RUN TIME: 0 days 1 hours 21 minutes 41 seconds 63 msec
