                         Program Version 5.0.4 -  RELEASE  -
|  1> ! NEB-TS b3lyp D3 def2-TZVP CPCM
|  2>
|  3> %pal
|  4> nprocs 102
|  5> end
|  6>
|  7> %cpcm
|  8> epsilon 78.4
|  9> end
| 10>
| 11> %neb
| 12> NEB_End_XYZFile "end.xyz"
| 13> Nimages 6
| 14> end
| 15>
| 16>
| 17> *XYZfile -1 1 start.xyz
| 18>
| 19>                          ****END OF INPUT****
 Total Charge           Charge          ....   -1
 Multiplicity           Mult            ....    1
 Number of Electrons    NEL             ....  122
Dispersion correction           -0.049479792
FINAL SINGLE POINT ENERGY      -872.239207931562
Dispersion correction            ... done
Dispersion correction           -0.049480457
FINAL SINGLE POINT ENERGY      -872.239425266164
Dispersion correction            ... done
Dispersion correction           -0.049477085
FINAL SINGLE POINT ENERGY      -872.239480138314
Dispersion correction            ... done
FINAL SINGLE POINT ENERGY      -872.239631824809
FINAL SINGLE POINT ENERGY      -872.239666082240
FINAL SINGLE POINT ENERGY      -872.239666930249
FINAL SINGLE POINT ENERGY      -872.239704245290
FINAL SINGLE POINT ENERGY      -872.239728342098
FINAL SINGLE POINT ENERGY      -872.239761454870
FINAL SINGLE POINT ENERGY      -872.239796678726
FINAL SINGLE POINT ENERGY      -872.240363775064
FINAL SINGLE POINT ENERGY      -872.240358993848
FINAL SINGLE POINT ENERGY      -872.240384803945
FINAL SINGLE POINT ENERGY      -872.240402636006
FINAL SINGLE POINT ENERGY      -872.240421491124
FINAL SINGLE POINT ENERGY      -872.240422438488
FINAL SINGLE POINT ENERGY      -872.240421411626
Dispersion correction            ... done
Dispersion correction           -0.049818186
FINAL SINGLE POINT ENERGY      -872.240424170091
Dispersion correction            ... done

CARTESIAN COORDINATES (ANGSTROEM)
---------------------------------
  C     -2.306576    0.727142   -0.446377
  C     -1.014269    0.692071    0.042385
  C     -0.052428   -0.167887   -0.506092
  C     -0.434185   -1.011611   -1.554535
  C     -1.725973   -0.993462   -2.055768
  C     -2.648962   -0.119834   -1.496001
  H     -3.045318    1.387147   -0.017768
  H     -0.742727    1.334079    0.867208
  H      0.282006   -1.690620   -1.994195
  C      1.328113   -0.224085    0.074612
  H      1.192250   -0.160884    1.308740
  C      2.137355   -1.475363   -0.205317
  H      3.011941   -1.515523    0.440153
  H      2.475000   -1.542147   -1.242417
  H      1.518224   -2.345650    0.012803
  N      2.099124    0.994139   -0.181902
  O      3.331180    0.924302   -0.149236
  O      1.512836    2.069058   -0.335458
  O      2.653220    1.815273    3.537264
  H      2.310827    2.135610    4.378874
  H     -2.013816   -1.639984   -2.870840
  N     -4.011820   -0.096492   -2.014195
  O     -4.317873   -0.900286   -2.889251
  O     -4.797979    0.725461   -1.553572
  H      0.157674    0.130627    2.870464
  H      2.026067    1.074276    3.257231
  O      1.076108   -0.125356    2.723191

Dispersion correction           -0.049807555
FINAL SINGLE POINT ENERGY      -872.240428926814
Dispersion correction            ... done
                    ***********************HURRAY********************
 Multiplicity           Mult            ....    1
 Number of Electrons    NEL             ....  122
 Basis Dimension        Dim             ....  562

ORBITAL ENERGIES
----------------

  NO   OCC          E(Eh)            E(eV)
   0   2.0000     -19.164451      -521.4912
   1   2.0000     -19.164340      -521.4882
   2   2.0000     -19.142708      -520.8996
   3   2.0000     -19.141300      -520.8612
   4   2.0000     -19.081623      -519.2374
   5   2.0000     -19.047174      -518.3000
   6   2.0000     -14.557870      -396.1398
   7   2.0000     -14.530320      -395.3901
   8   2.0000     -10.232912      -278.4517
   9   2.0000     -10.202256      -277.6175
  10   2.0000     -10.200158      -277.5604
  11   2.0000     -10.194907      -277.4175
  12   2.0000     -10.193797      -277.3873
  13   2.0000     -10.185755      -277.1685
  14   2.0000     -10.184136      -277.1244
  15   2.0000     -10.159485      -276.4536
  16   2.0000      -1.237167       -33.6650
  17   2.0000      -1.210495       -32.9392
  18   2.0000      -1.061267       -28.8785
  19   2.0000      -1.034166       -28.1411
  20   2.0000      -0.964450       -26.2440
  21   2.0000      -0.899115       -24.4662
  22   2.0000      -0.890290       -24.2260
  23   2.0000      -0.838157       -22.8074
  24   2.0000      -0.789498       -21.4833
  25   2.0000      -0.767022       -20.8717
  26   2.0000      -0.700278       -19.0555
  27   2.0000      -0.693728       -18.8773
  28   2.0000      -0.626978       -17.0609
  29   2.0000      -0.604094       -16.4382
  30   2.0000      -0.570383       -15.5209
  31   2.0000      -0.565725       -15.3942
  32   2.0000      -0.544484       -14.8162
  33   2.0000      -0.533616       -14.5204
  34   2.0000      -0.530498       -14.4356
  35   2.0000      -0.525789       -14.3074
  36   2.0000      -0.506848       -13.7920
  37   2.0000      -0.490006       -13.3337
  38   2.0000      -0.474214       -12.9040
  39   2.0000      -0.460983       -12.5440
  40   2.0000      -0.457760       -12.4563
  41   2.0000      -0.439417       -11.9571
  42   2.0000      -0.412509       -11.2250
  43   2.0000      -0.395991       -10.7755
  44   2.0000      -0.393300       -10.7022
  45   2.0000      -0.388251       -10.5648
  46   2.0000      -0.372173       -10.1274
  47   2.0000      -0.364295        -9.9130
  48   2.0000      -0.357551        -9.7295
  49   2.0000      -0.339871        -9.2484
  50   2.0000      -0.327411        -8.9093
  51   2.0000      -0.326286        -8.8787
  52   2.0000      -0.308999        -8.4083
  53   2.0000      -0.306862        -8.3502
  54   2.0000      -0.305744        -8.3197
  55   2.0000      -0.291249        -7.9253
  56   2.0000      -0.284033        -7.7289
  57   2.0000      -0.275054        -7.4846
  58   2.0000      -0.267436        -7.2773
  59   2.0000      -0.248535        -6.7630
  60   2.0000      -0.217410        -5.9160
  61   0.0000      -0.100723        -2.7408
  62   0.0000      -0.057731        -1.5709
  63   0.0000      -0.023562        -0.6411
  64   0.0000      -0.005148        -0.1401
  65   0.0000       0.043040         1.1712

-------
TIMINGS
-------

Dispersion correction           -0.049808394
FINAL SINGLE POINT ENERGY      -872.240432312831
                    ***********************HURRAY************************

DIPOLE MOMENT
-------------
                                X             Y             Z
Electronic contribution:    -13.53412       3.06986     -12.41403
Nuclear contribution   :     10.52113      -4.88615      10.00722
                        -----------------------------------------
Total Dipole Moment    :     -3.01300      -1.81630      -2.40682
                        -----------------------------------------
Magnitude (a.u.)       :      4.26261
Magnitude (Debye)      :     10.83470

Rotational constants in cm-1:     0.032804     0.007747     0.007142
Rotational constants in MHz :   983.432158   232.242136   214.110688

                             ****ORCA TERMINATED NORMALLY****
TOTAL RUN TIME: 0 days 2 hours 37 minutes 0 seconds 426 msec
