                         Program Version 5.0.4 -  RELEASE  -
|  1> ! NEB-TS b3lyp D3 def2-TZVP CPCM
|  2>
|  3> %pal
|  4> nprocs 102
|  5> end
|  6>
|  7> %cpcm
|  8> epsilon 78.4
|  9> end
| 10>
| 11> %neb
| 12> NEB_End_XYZFile "end.xyz"
| 13> Nimages 6
| 14> end
| 15>
| 16>
| 17> *XYZfile 0 1 start.xyz
| 18>
| 19>                          ****END OF INPUT****
 Total Charge           Charge          ....    0
 Multiplicity           Mult            ....    1
 Number of Electrons    NEL             ....   98
Dispersion correction           -0.039914552
FINAL SINGLE POINT ENERGY      -647.066179753857
Dispersion correction            ... done
Dispersion correction           -0.039964065
FINAL SINGLE POINT ENERGY      -647.066722252300
Dispersion correction            ... done
Dispersion correction           -0.040123175
FINAL SINGLE POINT ENERGY      -647.067089417172
Dispersion correction            ... done
FINAL SINGLE POINT ENERGY      -647.067584592794
FINAL SINGLE POINT ENERGY      -647.068194396007
FINAL SINGLE POINT ENERGY      -647.068457314369
FINAL SINGLE POINT ENERGY      -647.068578947810
FINAL SINGLE POINT ENERGY      -647.068569882635
FINAL SINGLE POINT ENERGY      -647.068621763237
FINAL SINGLE POINT ENERGY      -647.068632208558
FINAL SINGLE POINT ENERGY      -647.068677031075
FINAL SINGLE POINT ENERGY      -647.068677738342
FINAL SINGLE POINT ENERGY      -647.068678515991
FINAL SINGLE POINT ENERGY      -647.068679168281
FINAL SINGLE POINT ENERGY      -647.068679953053
FINAL SINGLE POINT ENERGY      -647.068680502826
FINAL SINGLE POINT ENERGY      -647.068681136005
Dispersion correction            ... done
Dispersion correction           -0.039897502
FINAL SINGLE POINT ENERGY      -647.068681928610
Dispersion correction            ... done

CARTESIAN COORDINATES (ANGSTROEM)
---------------------------------
  C     -2.404106    0.924732    0.504030
  H     -2.992644    1.344413   -0.303874
  N     -3.764361   -1.117308    0.308908
  O     -4.450446   -0.599053   -0.592518
  O     -4.070359   -2.227665    0.792338
  H     -0.930984    1.320609    1.975763
  C     -2.570030   -0.506237    0.736708
  H     -1.628070   -1.126995   -0.169656
  H     -2.263861   -0.906150    1.696632
  C     -1.545002    1.704046    1.168498
  H     -1.430844    2.749846    0.914959
  C      1.702993   -0.065985    0.598198
  C      2.879861    0.627262    0.826282
  C      3.696833    0.928547   -0.257363
  C      3.311296    0.526660   -1.530975
  C      2.119054   -0.162819   -1.677421
  N      1.338706   -0.448152   -0.629907
  H      1.026177   -0.324789    1.401917
  H      3.145937    0.923356    1.831227
  H      3.920525    0.741702   -2.397610
  H      1.768098   -0.499384   -2.644587
  H      4.622695    1.469558   -0.111380
  H     -0.777541   -2.550753   -0.701463
  H      0.156879   -1.110254   -0.801062
  O     -0.860806   -1.615187   -0.937646

Dispersion correction           -0.039898742
FINAL SINGLE POINT ENERGY      -647.068682334580
Dispersion correction            ... done
                    ***********************HURRAY********************
 Multiplicity           Mult            ....    1
 Number of Electrons    NEL             ....   98
 Basis Dimension        Dim             ....  475

ORBITAL ENERGIES
----------------

  NO   OCC          E(Eh)            E(eV)
   0   2.0000     -19.147847      -521.0394
   1   2.0000     -19.127547      -520.4870
   2   2.0000     -19.125519      -520.4318
   3   2.0000     -14.520138      -395.1130
   4   2.0000     -14.357650      -390.6915
   5   2.0000     -10.229082      -278.3475
   6   2.0000     -10.228669      -278.3362
   7   2.0000     -10.204893      -277.6892
   8   2.0000     -10.195060      -277.4217
   9   2.0000     -10.195012      -277.4204
  10   2.0000     -10.183087      -277.0959
  11   2.0000     -10.174689      -276.8673
  12   2.0000     -10.153710      -276.2965
  13   2.0000      -1.191446       -32.4209
  14   2.0000      -1.026513       -27.9328
  15   2.0000      -1.014008       -27.5925
  16   2.0000      -0.978288       -26.6206
  17   2.0000      -0.824163       -22.4266
  18   2.0000      -0.820297       -22.3214
  19   2.0000      -0.785638       -21.3783
  20   2.0000      -0.744470       -20.2581
  21   2.0000      -0.654622       -17.8132
  22   2.0000      -0.649092       -17.6627
  23   2.0000      -0.606039       -16.4912
  24   2.0000      -0.570532       -15.5250
  25   2.0000      -0.554425       -15.0867
  26   2.0000      -0.534372       -14.5410
  27   2.0000      -0.521281       -14.1848
  28   2.0000      -0.520113       -14.1530
  29   2.0000      -0.505417       -13.7531
  30   2.0000      -0.495833       -13.4923
  31   2.0000      -0.485176       -13.2023
  32   2.0000      -0.480058       -13.0630
  33   2.0000      -0.448923       -12.2158
  34   2.0000      -0.430692       -11.7197
  35   2.0000      -0.426888       -11.6162
  36   2.0000      -0.422869       -11.5068
  37   2.0000      -0.414780       -11.2867
  38   2.0000      -0.382534       -10.4093
  39   2.0000      -0.378467       -10.2986
  40   2.0000      -0.353526        -9.6199
  41   2.0000      -0.314575        -8.5600
  42   2.0000      -0.311133        -8.4664
  43   2.0000      -0.305167        -8.3040
  44   2.0000      -0.299157        -8.1405
  45   2.0000      -0.295822        -8.0497
  46   2.0000      -0.285300        -7.7634
  47   2.0000      -0.272212        -7.4073
  48   2.0000      -0.214618        -5.8401
  49   0.0000      -0.057155        -1.5553
  50   0.0000      -0.049564        -1.3487
  51   0.0000      -0.034754        -0.9457
  52   0.0000       0.014461         0.3935
  53   0.0000       0.041605         1.1321

-------
TIMINGS
-------

Dispersion correction           -0.039902775
FINAL SINGLE POINT ENERGY      -647.068683105631
                    ***********************HURRAY************************

DIPOLE MOMENT
-------------
                                X             Y             Z
Electronic contribution:     -3.03934      -3.55529      -1.38214
Nuclear contribution   :      9.89426       4.48305       1.32014
                        -----------------------------------------
Total Dipole Moment    :      6.85492       0.92775      -0.06200
                        -----------------------------------------
Magnitude (a.u.)       :      6.91770
Magnitude (Debye)      :     17.58339

Rotational constants in cm-1:     0.053687     0.010053     0.009349
Rotational constants in MHz :  1609.481561   301.370440   280.280722

                             ****ORCA TERMINATED NORMALLY****
TOTAL RUN TIME: 0 days 1 hours 30 minutes 12 seconds 222 msec
