                         Program Version 5.0.4 -  RELEASE  -
|  1> ! NEB-TS b3lyp D3 def2-TZVP CPCM
|  2>
|  3> %pal
|  4> nprocs 102
|  5> end
|  6>
|  7> %cpcm
|  8> epsilon 78.4
|  9> end
| 10>
| 11> %neb
| 12> NEB_End_XYZFile "end.xyz"
| 13> Nimages 6
| 14> end
| 15>
| 16>
| 17> *XYZfile 0 1 start.xyz
| 18>
| 19>                          ****END OF INPUT****
 Total Charge           Charge          ....    0
 Multiplicity           Mult            ....    1
 Number of Electrons    NEL             ....  106
 Basis Dimension        Dim             ....  518

ORBITAL ENERGIES
----------------

  NO   OCC          E(Eh)            E(eV)
   0   2.0000     -19.136185      -520.7221
   1   2.0000     -19.133750      -520.6558
   2   2.0000     -19.080922      -519.2183
   3   2.0000     -14.526038      -395.2736
   4   2.0000     -14.387063      -391.4919
   5   2.0000     -10.238852      -278.6133
   6   2.0000     -10.236908      -278.5604
   7   2.0000     -10.213045      -277.9111
   8   2.0000     -10.208827      -277.7963
   9   2.0000     -10.201421      -277.5948
  10   2.0000     -10.186029      -277.1760
  11   2.0000     -10.175623      -276.8928
  12   2.0000     -10.172736      -276.8142
  13   2.0000     -10.155730      -276.3515
  14   2.0000      -1.200870       -32.6773
  15   2.0000      -1.024174       -27.8692
  16   2.0000      -1.004757       -27.3408
  17   2.0000      -0.940217       -25.5846
  18   2.0000      -0.844341       -22.9757
  19   2.0000      -0.820906       -22.3380
  20   2.0000      -0.805646       -21.9227
  21   2.0000      -0.745898       -20.2969
  22   2.0000      -0.722415       -19.6579
  23   2.0000      -0.665682       -18.1141
  24   2.0000      -0.639622       -17.4050
  25   2.0000      -0.607760       -16.5380
  26   2.0000      -0.573844       -15.6151
  27   2.0000      -0.555865       -15.1259
  28   2.0000      -0.526379       -14.3235
  29   2.0000      -0.524142       -14.2626
  30   2.0000      -0.523428       -14.2432
  31   2.0000      -0.501649       -13.6506
  32   2.0000      -0.501370       -13.6430
  33   2.0000      -0.471764       -12.8374
  34   2.0000      -0.453278       -12.3343
  35   2.0000      -0.448535       -12.2053
  36   2.0000      -0.444243       -12.0885
  37   2.0000      -0.429050       -11.6750
  38   2.0000      -0.420678       -11.4472
  39   2.0000      -0.415116       -11.2959
  40   2.0000      -0.407719       -11.0946
  41   2.0000      -0.396508       -10.7895
  42   2.0000      -0.379251       -10.3199
  43   2.0000      -0.365178        -9.9370
  44   2.0000      -0.351331        -9.5602
  45   2.0000      -0.318033        -8.6541
  46   2.0000      -0.304236        -8.2787
  47   2.0000      -0.302983        -8.2446
  48   2.0000      -0.290548        -7.9062
  49   2.0000      -0.284291        -7.7360
  50   2.0000      -0.280680        -7.6377
  51   2.0000      -0.278432        -7.5765
  52   2.0000      -0.217667        -5.9230
  53   0.0000      -0.069381        -1.8880
  54   0.0000      -0.055043        -1.4978
  55   0.0000      -0.038025        -1.0347
  56   0.0000       0.005307         0.1444
  57   0.0000       0.045250         1.2313

-------
TIMINGS
-------

Dispersion correction           -0.044722603
FINAL SINGLE POINT ENERGY      -686.374590627677
Dispersion correction            ... done
Dispersion correction           -0.044591193
FINAL SINGLE POINT ENERGY      -686.374969872123
Dispersion correction            ... done
Dispersion correction           -0.044618599
FINAL SINGLE POINT ENERGY      -686.375279117551
Dispersion correction            ... done
FINAL SINGLE POINT ENERGY      -686.375683770578
FINAL SINGLE POINT ENERGY      -686.376216908879
FINAL SINGLE POINT ENERGY      -686.376838508540
FINAL SINGLE POINT ENERGY      -686.377389160095
FINAL SINGLE POINT ENERGY      -686.377783777468
FINAL SINGLE POINT ENERGY      -686.368766849512
FINAL SINGLE POINT ENERGY      -686.378372557657
FINAL SINGLE POINT ENERGY      -686.378544769544
FINAL SINGLE POINT ENERGY      -686.378572315680
FINAL SINGLE POINT ENERGY      -686.378587226529
FINAL SINGLE POINT ENERGY      -686.378617407997
FINAL SINGLE POINT ENERGY      -686.378650133853
FINAL SINGLE POINT ENERGY      -686.378652760286
FINAL SINGLE POINT ENERGY      -686.378634736503
Dispersion correction           -0.045514479
FINAL SINGLE POINT ENERGY      -686.378633474379
Dispersion correction            ... done
Dispersion correction           -0.045485575
FINAL SINGLE POINT ENERGY      -686.378613051679
Dispersion correction            ... done

CARTESIAN COORDINATES (ANGSTROEM)
---------------------------------
  C     -2.492305    1.691766   -0.675784
  H     -1.871719    2.170596    0.073194
  N     -3.415244    0.313081    1.148584
  O     -2.675705    0.879099    1.971670
  O     -4.298796   -0.481236    1.513516
  H     -3.121960    1.720411   -2.699799
  C     -3.193113    0.477168   -0.246723
  H     -4.095650    0.210502   -0.786898
  H     -2.364711   -0.548907   -0.513404
  C     -2.523747    2.177860   -1.918861
  H     -1.945024    3.050928   -2.189940
  C      1.756155   -1.222177   -0.315641
  C      2.994606   -0.767035    0.113178
  C      2.998844    0.199797    1.121833
  C      1.805680    0.666178    1.654281
  C      0.612291    0.161002    1.167478
  N      0.612323   -0.763121    0.203002
  H      1.659970   -1.968380   -1.094083
  H      1.796261    1.413188    2.435382
  H     -0.355966    0.480206    1.529961
  C      4.264396   -1.285051   -0.493324
  H      4.954685   -1.617948    0.283779
  H      4.765552   -0.496769   -1.060099
  H      4.067447   -2.119065   -1.166444
  H      3.942232    0.585858    1.488847
  H     -1.892860   -2.295616   -0.467424
  O     -1.539638   -1.472350   -0.829382
  H     -0.444005   -1.159987   -0.246897

Dispersion correction           -0.045514379
FINAL SINGLE POINT ENERGY      -686.378640705307
Dispersion correction            ... done

DIPOLE MOMENT
-------------
                                X             Y             Z
Electronic contribution:     -5.91666      -0.05382       7.38626
Nuclear contribution   :     11.01157      -0.63216      -8.20925
                        -----------------------------------------
Total Dipole Moment    :      5.09490      -0.68598      -0.82298
                        -----------------------------------------
Magnitude (a.u.)       :      5.20633
Magnitude (Debye)      :     13.23345

Rotational constants in cm-1:     0.037341     0.009736     0.009408
Rotational constants in MHz :  1119.464450   291.867010   282.039403

                             ****ORCA TERMINATED NORMALLY****
TOTAL RUN TIME: 0 days 3 hours 4 minutes 50 seconds 152 msec
