                         Program Version 5.0.4 -  RELEASE  -
|  1> ! NEB-TS b3lyp D3 def2-TZVP CPCM
|  2>
|  3> %pal
|  4> nprocs 102
|  5> end
|  6>
|  7> %cpcm
|  8> epsilon 78.4
|  9> end
| 10>
| 11> %neb
| 12> NEB_End_XYZFile "end.xyz"
| 13> Nimages 6
| 14> end
| 15>
| 16>
| 17> *XYZfile -1 1 start.xyz
| 18>
| 19>                          ****END OF INPUT****
 Total Charge           Charge          ....   -1
 Multiplicity           Mult            ....    1
 Number of Electrons    NEL             ....   90
Dispersion correction           -0.030481676
FINAL SINGLE POINT ENERGY      -628.672258723876
Dispersion correction            ... done
Dispersion correction           -0.030658046
FINAL SINGLE POINT ENERGY      -628.672822350226
Dispersion correction            ... done
Dispersion correction           -0.030662733
FINAL SINGLE POINT ENERGY      -628.673138924630
Dispersion correction            ... done
FINAL SINGLE POINT ENERGY      -628.673505024970
FINAL SINGLE POINT ENERGY      -628.673962926129
FINAL SINGLE POINT ENERGY      -628.673900467758
FINAL SINGLE POINT ENERGY      -628.673315003752
FINAL SINGLE POINT ENERGY      -628.674139299279
FINAL SINGLE POINT ENERGY      -628.674124147653
FINAL SINGLE POINT ENERGY      -628.674167355773
FINAL SINGLE POINT ENERGY      -628.674183664979
FINAL SINGLE POINT ENERGY      -628.674182529077
FINAL SINGLE POINT ENERGY      -628.674179236657
FINAL SINGLE POINT ENERGY      -628.674179153727
FINAL SINGLE POINT ENERGY      -628.674177029512
FINAL SINGLE POINT ENERGY      -628.674177813809
FINAL SINGLE POINT ENERGY      -628.674176816106
Dispersion correction            ... done
Dispersion correction           -0.030603578
FINAL SINGLE POINT ENERGY      -628.674178910740
Dispersion correction            ... done

CARTESIAN COORDINATES (ANGSTROEM)
---------------------------------
  C     -1.603793    0.479860   -0.261376
  H     -0.377919    1.082915   -0.313079
  N     -1.416252   -0.404300    0.823621
  O     -1.000968   -1.566396    0.616987
  O     -1.582532    0.006220    1.994312
  C      2.591472   -0.949395    0.136454
  O      2.249817    0.107720    0.840519
  O      2.284823   -1.120314   -1.036016
  C      3.398150   -1.950217    0.925484
  H      3.730647   -2.762942    0.284473
  H      2.780434   -2.351498    1.731886
  H      4.257819   -1.460652    1.385303
  C     -2.571748    1.608611    0.030218
  H     -2.264105    2.197926    0.892292
  H     -3.587733    1.240563    0.215412
  H     -2.607611    2.269748   -0.836755
  C     -1.780524   -0.213466   -1.594754
  H     -2.702987   -0.804940   -1.633774
  H     -0.946519   -0.874951   -1.822531
  H     -1.835618    0.544509   -2.377445
  H      1.620106    0.784383    0.302296
  O      0.737341    1.656694   -0.398386
  H      0.627699    2.479920    0.094860

Dispersion correction           -0.030637386
FINAL SINGLE POINT ENERGY      -628.674181270871
Dispersion correction            ... done
                    ***********************HURRAY********************
 Multiplicity           Mult            ....    1
 Number of Electrons    NEL             ....   90
 Basis Dimension        Dim             ....  413

ORBITAL ENERGIES
----------------

  NO   OCC          E(Eh)            E(eV)
   0   2.0000     -19.125545      -520.4325
   1   2.0000     -19.117256      -520.2070
   2   2.0000     -19.116409      -520.1839
   3   2.0000     -19.094299      -519.5823
   4   2.0000     -19.084104      -519.3049
   5   2.0000     -14.504494      -394.6873
   6   2.0000     -10.286346      -279.9057
   7   2.0000     -10.178248      -276.9642
   8   2.0000     -10.161626      -276.5119
   9   2.0000     -10.153108      -276.2801
  10   2.0000     -10.152125      -276.2534
  11   2.0000      -1.178299       -32.0632
  12   2.0000      -1.074139       -29.2288
  13   2.0000      -1.001062       -27.2403
  14   2.0000      -0.987592       -26.8737
  15   2.0000      -0.944648       -25.7052
  16   2.0000      -0.816056       -22.2060
  17   2.0000      -0.734523       -19.9874
  18   2.0000      -0.687441       -18.7062
  19   2.0000      -0.681190       -18.5361
  20   2.0000      -0.581516       -15.8239
  21   2.0000      -0.545777       -14.8513
  22   2.0000      -0.516468       -14.0538
  23   2.0000      -0.487382       -13.2623
  24   2.0000      -0.483658       -13.1610
  25   2.0000      -0.479328       -13.0432
  26   2.0000      -0.460402       -12.5282
  27   2.0000      -0.451979       -12.2990
  28   2.0000      -0.445822       -12.1314
  29   2.0000      -0.417175       -11.3519
  30   2.0000      -0.397349       -10.8124
  31   2.0000      -0.396201       -10.7812
  32   2.0000      -0.385966       -10.5027
  33   2.0000      -0.379906       -10.3378
  34   2.0000      -0.377086       -10.2610
  35   2.0000      -0.374009       -10.1773
  36   2.0000      -0.343174        -9.3382
  37   2.0000      -0.339208        -9.2303
  38   2.0000      -0.301049        -8.1920
  39   2.0000      -0.291203        -7.9240
  40   2.0000      -0.286884        -7.8065
  41   2.0000      -0.281391        -7.6570
  42   2.0000      -0.264417        -7.1952
  43   2.0000      -0.260338        -7.0841
  44   2.0000      -0.209425        -5.6987
  45   0.0000      -0.039246        -1.0679
  46   0.0000       0.020540         0.5589
  47   0.0000       0.043938         1.1956
  48   0.0000       0.059907         1.6302
  49   0.0000       0.076812         2.0902

-------
TIMINGS
-------

Dispersion correction           -0.030647644
FINAL SINGLE POINT ENERGY      -628.674181763386
                    ***********************HURRAY************************

DIPOLE MOMENT
-------------
                                X             Y             Z
Electronic contribution:      2.49607      -3.34935       4.02620
Nuclear contribution   :     -2.73503       4.25419      -4.12047
                        -----------------------------------------
Total Dipole Moment    :     -0.23896       0.90484      -0.09427
                        -----------------------------------------
Magnitude (a.u.)       :      0.94059
Magnitude (Debye)      :      2.39080

Rotational constants in cm-1:     0.050744     0.018694     0.017705
Rotational constants in MHz :  1521.278779   560.431281   530.778889

                             ****ORCA TERMINATED NORMALLY****
TOTAL RUN TIME: 0 days 1 hours 15 minutes 55 seconds 9 msec
