                         Program Version 5.0.4 -  RELEASE  -
|  1> !  NUMFREQ B3LYP def2-TZVP CPCM D3
|  2> %pal nprocs 102 end
|  3> %cpcm epsilon 78.4 end
|  4> *xyz -1 1
|  5> C   0.61600701316811 -0.75974943440403 0.8076304862956
|  6> H   1.01628057920438 -1.34876058358563 -0.0096197419624
|  7> H   0.13813457886498 0.14208267885365 0.42900100289256
|  8> H   1.35985572597066 -0.514883715081 1.55576966511797
|  9> N   -0.46145672384236 -1.5617388820096 1.45904961985919
| 10> O   -0.60784390158529 -1.45761623886671 2.66653399512089
| 11> O   -1.1591816359717 -2.26233918139371 0.74188336832721
| 12> C   5.85994168214957 0.65408994571187 -0.08573859017254
| 13> O   7.05168622414637 0.77195877907729 -0.43935073074221
| 14> O   4.88633449611077 0.28896772111761 -0.7908451243144
| 15> C   5.64647676994369 1.03806138649963 1.39054957471386
| 16> Cl   4.01078754204012 0.66963585422958 2.08632364524707
| 17> H   5.79427820675061 2.10944967286172 1.51265413669294
| 18> H   6.36310516471322 0.50672178172719 2.00961099184192
| 19> H   2.29473482940093 1.83818551000727 0.03834689392802
| 20> O   2.47411661484361 1.55585743835217 -0.86687230613355
| 21> H   3.33148640409223 1.07041823690268 -0.79773371671216
| 22> *
| 23>
| 24>                          ****END OF INPUT****

CARTESIAN COORDINATES (ANGSTROEM)
---------------------------------
  C      0.616007   -0.759749    0.807630
  H      1.016281   -1.348761   -0.009620
  H      0.138135    0.142083    0.429001
  H      1.359856   -0.514884    1.555770
  N     -0.461457   -1.561739    1.459050
  O     -0.607844   -1.457616    2.666534
  O     -1.159182   -2.262339    0.741883
  C      5.859942    0.654090   -0.085739
  O      7.051686    0.771959   -0.439351
  O      4.886334    0.288968   -0.790845
  C      5.646477    1.038061    1.390550
  Cl     4.010788    0.669636    2.086324
  H      5.794278    2.109450    1.512654
  H      6.363105    0.506722    2.009611
  H      2.294735    1.838186    0.038347
  O      2.474117    1.555857   -0.866872
  H      3.331486    1.070418   -0.797734

 Total Charge           Charge          ....   -1
 Multiplicity           Mult            ....    1
 Number of Electrons    NEL             ....   90
 Basis Dimension        Dim             ....  358

ORBITAL ENERGIES
----------------

  NO   OCC          E(Eh)            E(eV)
   0   2.0000    -101.505614     -2762.1082
   1   2.0000     -19.169980      -521.6417
   2   2.0000     -19.169115      -521.6181
   3   2.0000     -19.097221      -519.6618
   4   2.0000     -19.072586      -518.9914
   5   2.0000     -19.068240      -518.8732
   6   2.0000     -14.557399      -396.1270
   7   2.0000     -10.261699      -279.2350
   8   2.0000     -10.217928      -278.0439
   9   2.0000     -10.214765      -277.9579
  10   2.0000      -9.438012      -256.8214
  11   2.0000      -7.199071      -195.8967
  12   2.0000      -7.191194      -195.6823
  13   2.0000      -7.191132      -195.6806
  14   2.0000      -1.241398       -33.7801
  15   2.0000      -1.067433       -29.0463
  16   2.0000      -1.032603       -28.0986
  17   2.0000      -0.980512       -26.6811
  18   2.0000      -0.944351       -25.6971
  19   2.0000      -0.839375       -22.8406
  20   2.0000      -0.811110       -22.0714
  21   2.0000      -0.683622       -18.6023
  22   2.0000      -0.622990       -16.9524
  23   2.0000      -0.553933       -15.0733
  24   2.0000      -0.542932       -14.7739
  25   2.0000      -0.532846       -14.4995
  26   2.0000      -0.519165       -14.1272
  27   2.0000      -0.496968       -13.5232
  28   2.0000      -0.459898       -12.5145
  29   2.0000      -0.442674       -12.0458
  30   2.0000      -0.438193       -11.9238
  31   2.0000      -0.428081       -11.6487
  32   2.0000      -0.419476       -11.4145
  33   2.0000      -0.391845       -10.6626
  34   2.0000      -0.378188       -10.2910
  35   2.0000      -0.368479       -10.0268
  36   2.0000      -0.330785        -9.0011
  37   2.0000      -0.323910        -8.8140
  38   2.0000      -0.308914        -8.4060
  39   2.0000      -0.305990        -8.3264
  40   2.0000      -0.296065        -8.0563
  41   2.0000      -0.294534        -8.0147
  42   2.0000      -0.261571        -7.1177
  43   2.0000      -0.252476        -6.8702
  44   2.0000      -0.242317        -6.5938
  45   0.0000      -0.079997        -2.1768
  46   0.0000       0.021820         0.5938
  47   0.0000       0.042645         1.1604
  48   0.0000       0.047503         1.2926
  49   0.0000       0.072267         1.9665

MULLIKEN ATOMIC CHARGES
-----------------------
   0 C :   -0.263923
   1 H :    0.167703
   2 H :    0.176937
   3 H :    0.160599
   4 N :    0.431200
   5 O :   -0.348244
   6 O :   -0.349537
   7 C :    0.280177
   8 O :   -0.546823
   9 O :   -0.567169
  10 C :   -0.165401
  11 Cl:   -0.228514
  12 H :    0.152903
  13 H :    0.147757
  14 H :    0.336089
  15 O :   -0.737917
  16 H :    0.354163
Sum of atomic charges:   -1.0000000

LOEWDIN ATOMIC CHARGES
----------------------
   0 C :   -0.245593
   1 H :    0.134660
   2 H :    0.143128
   3 H :    0.122550
   4 N :   -0.067400
   5 O :   -0.059993
   6 O :   -0.061829
   7 C :   -0.700217
   8 O :   -0.095645
   9 O :   -0.102911
  10 C :   -0.455337
  11 Cl:    0.206235
  12 H :    0.134364
  13 H :    0.132132
  14 H :    0.147072
  15 O :   -0.366936
  16 H :    0.135718

  Mayer bond orders larger than 0.100000
B(  0-C ,  1-H ) :   0.9480 B(  0-C ,  2-H ) :   0.9338 B(  0-C ,  3-H ) :   0.9497
B(  0-C ,  4-N ) :   0.8767 B(  4-N ,  5-O ) :   1.6191 B(  4-N ,  6-O ) :   1.6101
B(  5-O ,  6-O ) :   0.2110 B(  7-C ,  8-O ) :   1.8164 B(  7-C ,  9-O ) :   1.6817
B(  7-C , 10-C ) :   0.9348 B(  9-O , 16-H ) :   0.1269 B( 10-C , 11-Cl) :   0.9793
B( 10-C , 12-H ) :   0.9472 B( 10-C , 13-H ) :   0.9526 B( 14-H , 15-O ) :   0.8905
B( 15-O , 16-H ) :   0.8107

Dispersion correction           -0.021273829
FINAL SINGLE POINT ENERGY     -1009.657015496374
Dispersion correction            ... done

DIPOLE MOMENT
-------------
                                X             Y             Z
Electronic contribution:     -0.89806      -2.64648       5.56592
Nuclear contribution   :     -1.65336       2.66749      -2.80180
                        -----------------------------------------
Total Dipole Moment    :     -2.55143       0.02100       2.76412
                        -----------------------------------------
Magnitude (a.u.)       :      3.76173
Magnitude (Debye)      :      9.56155

VIBRATIONAL FREQUENCIES
-----------------------

Scaling factor for frequencies =  1.000000000 (already applied!)

   0:         0.00 cm**-1
   1:         0.00 cm**-1
   2:         0.00 cm**-1
   3:         0.00 cm**-1
   4:         0.00 cm**-1
   5:         0.00 cm**-1
   6:       -58.37 cm**-1 ***imaginary mode***
   7:       -18.72 cm**-1 ***imaginary mode***
   8:         8.19 cm**-1
   9:        24.57 cm**-1
  10:        30.62 cm**-1
  11:        36.17 cm**-1
  12:        44.27 cm**-1
  13:        55.83 cm**-1
  14:        73.43 cm**-1
  15:        93.10 cm**-1
  16:       190.28 cm**-1
  17:       229.87 cm**-1
  18:       294.82 cm**-1
  19:       403.38 cm**-1
  20:       427.20 cm**-1
  21:       485.23 cm**-1
  22:       572.63 cm**-1
  23:       620.68 cm**-1
  24:       659.50 cm**-1
  25:       662.60 cm**-1
  26:       713.05 cm**-1
  27:       724.74 cm**-1
  28:       904.29 cm**-1
  29:       928.84 cm**-1
  30:       943.90 cm**-1
  31:      1110.64 cm**-1
  32:      1135.76 cm**-1
  33:      1187.04 cm**-1
  34:      1269.80 cm**-1
  35:      1378.76 cm**-1
  36:      1393.68 cm**-1
  37:      1427.87 cm**-1
  38:      1435.58 cm**-1
  39:      1437.10 cm**-1
  40:      1456.90 cm**-1
  41:      1565.03 cm**-1
  42:      1614.05 cm**-1
  43:      1644.53 cm**-1
  44:      3087.77 cm**-1
  45:      3091.29 cm**-1
  46:      3155.11 cm**-1
  47:      3178.88 cm**-1
  48:      3218.06 cm**-1
  49:      3334.37 cm**-1
  50:      3806.06 cm**-1

IR SPECTRUM
-----------

 Mode   freq       eps      Int      T**2         TX        TY        TZ
       cm**-1   L/(mol*cm) km/mol    a.u.
----------------------------------------------------------------------------
  8:      8.19   0.002070   10.46  0.078934  ( 0.088071 -0.266015 -0.020343)
  9:     24.57   0.001218    6.15  0.015471  (-0.067069  0.033449 -0.099265)
 10:     30.62   0.001688    8.53  0.017205  (-0.019442  0.129593 -0.005665)
 11:     36.17   0.001352    6.83  0.011663  (-0.005023  0.095071 -0.050988)
 12:     44.27   0.000985    4.98  0.006942  (-0.030346 -0.059869 -0.049370)
 13:     55.83   0.001008    5.09  0.005633  (-0.064610  0.005833 -0.037739)
 14:     73.43   0.001404    7.09  0.005966  (-0.011621 -0.075562  0.011022)
 15:     93.10   0.000408    2.06  0.001369  (-0.018454  0.030413  0.010150)
 16:    190.28   0.003882   19.62  0.006367  ( 0.061202 -0.048076  0.017599)
 17:    229.87   0.003456   17.47  0.004692  ( 0.058913 -0.014780  0.031668)
 18:    294.82   0.033975  171.69  0.035961  ( 0.090598  0.163620 -0.031334)
 19:    403.38   0.004318   21.82  0.003340  (-0.037680  0.035127  0.026203)
 20:    427.20   0.021346  107.88  0.015593  ( 0.104054 -0.046461 -0.051061)
 21:    485.23   0.000356    1.80  0.000229  (-0.002005 -0.005018 -0.014128)
 22:    572.63   0.001495    7.56  0.000815  (-0.005286  0.027913 -0.002797)
 23:    620.68   0.001721    8.70  0.000865  (-0.001000 -0.026441  0.012852)
 24:    659.50   0.017522   88.55  0.008291  ( 0.036012 -0.006015 -0.083415)
 25:    662.60   0.006429   32.49  0.003028  (-0.046697 -0.023617  0.017014)
 26:    713.05   0.027045  136.67  0.011836  ( 0.042557  0.100057  0.003671)
 27:    724.74   0.040645  205.41  0.017501  (-0.112376 -0.038163  0.058452)
 28:    904.29   0.003642   18.41  0.001257  ( 0.014476 -0.008949 -0.031102)
 29:    928.84   0.002729   13.79  0.000917  (-0.020438 -0.017848  0.013434)
 30:    943.90   0.002868   14.49  0.000948  (-0.005370  0.030163 -0.003084)
 31:   1110.64   0.005744   29.03  0.001614  ( 0.016037  0.017169  0.032586)
 32:   1135.76   0.000823    4.16  0.000226  ( 0.002506 -0.013573  0.005969)
 33:   1187.04   0.000215    1.09  0.000057  (-0.006814 -0.003069 -0.000868)
 34:   1269.80   0.017435   88.11  0.004285  (-0.060421 -0.011950  0.022168)
 35:   1378.76   0.070418  355.86  0.015938  ( 0.000667 -0.026905 -0.123345)
 36:   1393.68   0.013819   69.83  0.003094  (-0.030669 -0.030788  0.034723)
 37:   1427.87   0.005230   26.43  0.001143  ( 0.014314  0.011390  0.028431)
 38:   1435.58   0.016242   82.08  0.003531  ( 0.035871  0.034263 -0.032710)
 39:   1437.10   0.025611  129.43  0.005561  (-0.028084 -0.035279 -0.059398)
 40:   1456.90   0.005286   26.72  0.001132  ( 0.031848 -0.009980 -0.004296)
 41:   1565.03   0.118576  599.24  0.023644  (-0.037901 -0.056803 -0.137771)
 42:   1614.05   0.219237  1107.94  0.042388  ( 0.200667  0.026050  0.037974)
 43:   1644.53   0.022883  115.64  0.004342  (-0.020261  0.019144 -0.059710)
 44:   3087.77   0.000293    1.48  0.000030  (-0.002223 -0.004273  0.002527)
 45:   3091.29   0.002849   14.40  0.000288  ( 0.015887  0.004829 -0.003456)
 46:   3155.11   0.000317    1.60  0.000031  (-0.004808  0.002620 -0.001189)
 47:   3178.88   0.000392    1.98  0.000039  (-0.001526 -0.004990  0.003361)
 48:   3218.06   0.000041    0.21  0.000004  ( 0.001649  0.000268  0.001110)
 49:   3334.37   0.241989  1222.91  0.022648  (-0.139709  0.054410 -0.012987)
 50:   3806.06   0.012236   61.83  0.001003  ( 0.015669 -0.013427 -0.024030)

--------------------------
THERMOCHEMISTRY AT 298.15K
--------------------------

Temperature         ... 298.15 K
Pressure            ... 1.00 atm
Total Mass          ... 172.54 AMU

Throughout the following assumptions are being made:
  (1) The electronic state is orbitally nondegenerate
  (2) There are no thermally accessible electronically excited states
  (3) Hindered rotations indicated by low frequency modes are not
      treated as such but are treated as vibrations and this may
      cause some error
  (4) All equations used are the standard statistical mechanics
      equations for an ideal gas
  (5) All vibrations are strictly harmonic

freq.       8.19  E(vib)   ...       0.58
freq.      24.57  E(vib)   ...       0.56
freq.      30.62  E(vib)   ...       0.55
freq.      36.17  E(vib)   ...       0.54
freq.      44.27  E(vib)   ...       0.53
freq.      55.83  E(vib)   ...       0.52
freq.      73.43  E(vib)   ...       0.49
freq.      93.10  E(vib)   ...       0.47
freq.     190.28  E(vib)   ...       0.36
freq.     229.87  E(vib)   ...       0.32
freq.     294.82  E(vib)   ...       0.27
freq.     403.38  E(vib)   ...       0.19
freq.     427.20  E(vib)   ...       0.18
freq.     485.23  E(vib)   ...       0.15
freq.     572.63  E(vib)   ...       0.11
freq.     620.68  E(vib)   ...       0.09
freq.     659.50  E(vib)   ...       0.08
freq.     662.60  E(vib)   ...       0.08
freq.     713.05  E(vib)   ...       0.07
freq.     724.74  E(vib)   ...       0.06
freq.     904.29  E(vib)   ...       0.03
freq.     928.84  E(vib)   ...       0.03
freq.     943.90  E(vib)   ...       0.03
freq.    1110.64  E(vib)   ...       0.02
freq.    1135.76  E(vib)   ...       0.01
freq.    1187.04  E(vib)   ...       0.01
freq.    1269.80  E(vib)   ...       0.01
freq.    1378.76  E(vib)   ...       0.01
freq.    1393.68  E(vib)   ...       0.00
freq.    1427.87  E(vib)   ...       0.00
freq.    1435.58  E(vib)   ...       0.00
freq.    1437.10  E(vib)   ...       0.00
freq.    1456.90  E(vib)   ...       0.00
freq.    1565.03  E(vib)   ...       0.00
freq.    1614.05  E(vib)   ...       0.00
freq.    1644.53  E(vib)   ...       0.00
freq.    3087.77  E(vib)   ...       0.00
freq.    3091.29  E(vib)   ...       0.00
freq.    3155.11  E(vib)   ...       0.00
freq.    3178.88  E(vib)   ...       0.00
freq.    3218.06  E(vib)   ...       0.00
freq.    3334.37  E(vib)   ...       0.00
freq.    3806.06  E(vib)   ...       0.00

------------
INNER ENERGY
------------

The inner energy is: U= E(el) + E(ZPE) + E(vib) + E(rot) + E(trans)
    E(el)   - is the total energy from the electronic structure calculation
              = E(kin-el) + E(nuc-el) + E(el-el) + E(nuc-nuc)
    E(ZPE)  - the the zero temperature vibrational energy from the frequency calculation
    E(vib)  - the the finite temperature correction to E(ZPE) due to population
              of excited vibrational states
    E(rot)  - is the rotational thermal energy
    E(trans)- is the translational thermal energy

Summary of contributions to the inner energy U:
Electronic energy                ...  -1009.65701550 Eh
Zero point energy                ...      0.11403471 Eh      71.56 kcal/mol
Thermal vibrational correction   ...      0.01017085 Eh       6.38 kcal/mol
Thermal rotational correction    ...      0.00141627 Eh       0.89 kcal/mol
Thermal translational correction ...      0.00141627 Eh       0.89 kcal/mol
-----------------------------------------------------------------------
Total thermal energy                  -1009.52997739 Eh

Summary of corrections to the electronic energy:
(perhaps to be used in another calculation)
Total thermal correction                  0.01300340 Eh       8.16 kcal/mol
Non-thermal (ZPE) correction              0.11403471 Eh      71.56 kcal/mol
-----------------------------------------------------------------------
Total correction                          0.12703811 Eh      79.72 kcal/mol

--------
ENTHALPY
--------

The enthalpy is H = U + kB*T
                kB is Boltzmann's constant
Total free energy                 ...  -1009.52997739 Eh
Thermal Enthalpy correction       ...      0.00094421 Eh       0.59 kcal/mol
-----------------------------------------------------------------------
Total Enthalpy                    ...  -1009.52903318 Eh

Note: Only C1 symmetry has been detected, increase convergence thresholds
      if your molecule has a higher symmetry. Symmetry factor of 1.0 is
      used for the rotational entropy correction.

Note: Rotational entropy computed according to Herzberg
Infrared and Raman Spectra, Chapter V,1, Van Nostrand Reinhold, 1945
Point Group:  C1, Symmetry Number:   1
Rotational constants in cm-1:     0.059522     0.010608     0.009766

Vibrational entropy computed according to the QRRHO of S. Grimme
Chem.Eur.J. 2012 18 9955

-------
ENTROPY
-------

The entropy contributions are T*S = T*(S(el)+S(vib)+S(rot)+S(trans))
     S(el)   - electronic entropy
     S(vib)  - vibrational entropy
     S(rot)  - rotational entropy
     S(trans)- translational entropy
The entropies will be listed as multiplied by the temperature to get
units of energy

Electronic entropy                ...      0.00000000 Eh      0.00 kcal/mol
Vibrational entropy               ...      0.02011449 Eh     12.62 kcal/mol
Rotational entropy                ...      0.01517421 Eh      9.52 kcal/mol
Translational entropy             ...      0.01964379 Eh     12.33 kcal/mol
-----------------------------------------------------------------------
Final entropy term                ...      0.05493249 Eh     34.47 kcal/mol

In case the symmetry of your molecule has not been determined correctly
or in case you have a reason to use a different symmetry number we print
out the resulting rotational entropy values for sn=1,12 :
 --------------------------------------------------------
|  sn= 1 | S(rot)=       0.01517421 Eh      9.52 kcal/mol|
|  sn= 2 | S(rot)=       0.01451976 Eh      9.11 kcal/mol|
|  sn= 3 | S(rot)=       0.01413692 Eh      8.87 kcal/mol|
|  sn= 4 | S(rot)=       0.01386530 Eh      8.70 kcal/mol|
|  sn= 5 | S(rot)=       0.01365461 Eh      8.57 kcal/mol|
|  sn= 6 | S(rot)=       0.01348247 Eh      8.46 kcal/mol|
|  sn= 7 | S(rot)=       0.01333692 Eh      8.37 kcal/mol|
|  sn= 8 | S(rot)=       0.01321084 Eh      8.29 kcal/mol|
|  sn= 9 | S(rot)=       0.01309964 Eh      8.22 kcal/mol|
|  sn=10 | S(rot)=       0.01300016 Eh      8.16 kcal/mol|
|  sn=11 | S(rot)=       0.01291017 Eh      8.10 kcal/mol|
|  sn=12 | S(rot)=       0.01282801 Eh      8.05 kcal/mol|
 --------------------------------------------------------

-------------------
GIBBS FREE ENERGY
-------------------

The Gibbs free energy is G = H - T*S

                             ****ORCA TERMINATED NORMALLY****
TOTAL RUN TIME: 0 days 0 hours 5 minutes 49 seconds 162 msec
