                         Program Version 5.0.4 -  RELEASE  -
|  1> !  NUMFREQ B3LYP def2-TZVP CPCM D3
|  2> %pal nprocs 102 end
|  3> %cpcm epsilon 78.4 end
|  4> *xyz 0 2
|  5> C   -4.20063760725521 -0.67618175063928 -1.23041092714541
|  6> C   -2.87374634838059 -0.59698243468463 -0.82821519569254
|  7> C   -1.89706436897629 -1.45420729425171 -1.35241823015704
|  8> C   -2.29726014129322 -2.40277108332832 -2.2951458837643
|  9> C   -3.62854728412004 -2.4655401431601 -2.68613387570566
| 10> C   -4.59759633508169 -1.61625555839151 -2.17046855080831
| 11> H   -4.93634832471524 -0.01017541759151 -0.79831225121648
| 12> H   -2.59129933648387 0.11788641542789 -0.06997346673563
| 13> H   -1.58144983284326 -3.08626507310877 -2.72528105052171
| 14> H   -5.62483521784131 -1.69689017243532 -2.48991504295863
| 15> N   -4.02286528010206 -3.46119760375324 -3.68227964966047
| 16> O   -5.20842031773568 -3.55893783207627 -3.97205311058278
| 17> O   -3.14168214852335 -4.13589429955958 -4.21515579736755
| 18> C   -0.4934875056207 -1.44479905345151 -0.89734611969916
| 19> C   0.13679776343161 -2.71077404532681 -0.40343385013523
| 20> H   0.88476593009737 -2.49874078945566 0.36252292265168
| 21> H   0.63687005643165 -3.27940366829008 -1.19761921362504
| 22> H   -0.63444349949321 -3.34841166464151 0.0310039451697
| 23> N   0.27418406720427 -0.38600311456702 -1.14818054041448
| 24> O   1.54021418529308 -0.42861225066959 -0.90518173376888
| 25> O   -0.21918022342339 0.70061833932514 -1.63410264011033
| 26> H   -0.38498908151678 -0.40347043880246 1.07586865230748 M = 2
| 27> C   2.98526053492422 3.88130256679029 2.37652377963655
| 28> N   4.14719020915112 3.14820889682339 2.20799188455561
| 29> C   4.1141011693289 2.05724792384889 1.23429426281469
| 30> C   2.88272374247007 1.19891387331274 1.43711765413869
| 31> N   1.65323917967587 2.05794021006353 1.42410030657864
| 32> C   1.71686969040653 3.11783170201025 2.49117228429039
| 33> H   3.07008119007191 4.82070369644904 2.90706686378177
| 34> H   4.99268625930314 3.69924408484264 2.17171419664194
| 35> H   4.99961098260643 1.43424834640998 1.36106054130127
| 36> H   4.11608839905985 2.44764951731581 0.20710630747768
| 37> H   2.75781440425474 0.46709059761234 0.64019194942042
| 38> H   2.89787987047611 0.69893083069645 2.40604968458973
| 39> H   1.54881665316967 2.49633199564508 0.50521199217521
| 40> H   0.84756338579689 3.76489425834084 2.38089680674387
| 41> H   1.62554870333611 2.57034178042919 3.44035728774352
| 42> H   -0.01258698559578 -0.55581369017645 2.56496764263343
| 43> H   0.82554585263222 1.44680906088491 1.56600525226751
| 44> O   -0.30741239012007 0.09113328213295 1.91040291314987
| 45> *
| 46>
| 47>                          ****END OF INPUT****

CARTESIAN COORDINATES (ANGSTROEM)
---------------------------------
  C     -4.200638   -0.676182   -1.230411
  C     -2.873746   -0.596982   -0.828215
  C     -1.897064   -1.454207   -1.352418
  C     -2.297260   -2.402771   -2.295146
  C     -3.628547   -2.465540   -2.686134
  C     -4.597596   -1.616256   -2.170469
  H     -4.936348   -0.010175   -0.798312
  H     -2.591299    0.117886   -0.069973
  H     -1.581450   -3.086265   -2.725281
  H     -5.624835   -1.696890   -2.489915
  N     -4.022865   -3.461198   -3.682280
  O     -5.208420   -3.558938   -3.972053
  O     -3.141682   -4.135894   -4.215156
  C     -0.493488   -1.444799   -0.897346
  C      0.136798   -2.710774   -0.403434
  H      0.884766   -2.498741    0.362523
  H      0.636870   -3.279404   -1.197619
  H     -0.634443   -3.348412    0.031004
  N      0.274184   -0.386003   -1.148181
  O      1.540214   -0.428612   -0.905182
  O     -0.219180    0.700618   -1.634103
  H     -0.384989   -0.403470    1.075869
  C      2.985261    3.881303    2.376524
  N      4.147190    3.148209    2.207992
  C      4.114101    2.057248    1.234294
  C      2.882724    1.198914    1.437118
  N      1.653239    2.057940    1.424100
  C      1.716870    3.117832    2.491172
  H      3.070081    4.820704    2.907067
  H      4.992686    3.699244    2.171714
  H      4.999611    1.434248    1.361061
  H      4.116088    2.447650    0.207106
  H      2.757814    0.467091    0.640192
  H      2.897880    0.698931    2.406050
  H      1.548817    2.496332    0.505212
  H      0.847563    3.764894    2.380897
  H      1.625549    2.570342    3.440357
  H     -0.012587   -0.555814    2.564968
  H      0.825546    1.446809    1.566005
  O     -0.307412    0.091133    1.910403

 Total Charge           Charge          ....    0
 Multiplicity           Mult            ....    2
 Number of Electrons    NEL             ....  159
 Basis Dimension        Dim             ....  765

ORBITAL ENERGIES
----------------
                 SPIN UP ORBITALS
  NO   OCC          E(Eh)            E(eV)
   0   1.0000     -19.167140      -521.5644
   1   1.0000     -19.165619      -521.5230
   2   1.0000     -19.139174      -520.8034
   3   1.0000     -19.085117      -519.3324
   4   1.0000     -19.081952      -519.2463
   5   1.0000     -14.559311      -396.1790
   6   1.0000     -14.475472      -393.8976
   7   1.0000     -14.411722      -392.1629
   8   1.0000     -14.336994      -390.1294
   9   1.0000     -10.234242      -278.4879
  10   1.0000     -10.224298      -278.2173
  11   1.0000     -10.216961      -278.0176
  12   1.0000     -10.209538      -277.8157
  13   1.0000     -10.198053      -277.5031
  14   1.0000     -10.196338      -277.4565
  15   1.0000     -10.193375      -277.3758
  16   1.0000     -10.192162      -277.3428
  17   1.0000     -10.187668      -277.2205
  18   1.0000     -10.187515      -277.2164
  19   1.0000     -10.185840      -277.1708
  20   1.0000     -10.159693      -276.4593
  21   1.0000      -1.237948       -33.6863
  22   1.0000      -1.132159       -30.8076
  23   1.0000      -1.062341       -28.9078
  24   1.0000      -1.022691       -27.8288
  25   1.0000      -0.998597       -27.1732
  26   1.0000      -0.955045       -25.9881
  27   1.0000      -0.931817       -25.3560
  28   1.0000      -0.890553       -24.2332
  29   1.0000      -0.831232       -22.6190
  30   1.0000      -0.798777       -21.7358
  31   1.0000      -0.787452       -21.4277
  32   1.0000      -0.758204       -20.6318
  33   1.0000      -0.721066       -19.6212
  34   1.0000      -0.703344       -19.1390
  35   1.0000      -0.694053       -18.8861
  36   1.0000      -0.663920       -18.0662
  37   1.0000      -0.631046       -17.1716
  38   1.0000      -0.606374       -16.5003
  39   1.0000      -0.602063       -16.3830
  40   1.0000      -0.573707       -15.6113
  41   1.0000      -0.564299       -15.3554
  42   1.0000      -0.545264       -14.8374
  43   1.0000      -0.543169       -14.7804
  44   1.0000      -0.540024       -14.6948
  45   1.0000      -0.529268       -14.4021
  46   1.0000      -0.519929       -14.1480
  47   1.0000      -0.503835       -13.7100
  48   1.0000      -0.491032       -13.3617
  49   1.0000      -0.486794       -13.2463
  50   1.0000      -0.482987       -13.1428
  51   1.0000      -0.480677       -13.0799
  52   1.0000      -0.474106       -12.9011
  53   1.0000      -0.468303       -12.7432
  54   1.0000      -0.457809       -12.4576
  55   1.0000      -0.445854       -12.1323
  56   1.0000      -0.444497       -12.0954
  57   1.0000      -0.417456       -11.3596
  58   1.0000      -0.413089       -11.2407
  59   1.0000      -0.407380       -11.0854
  60   1.0000      -0.393526       -10.7084
  61   1.0000      -0.390753       -10.6329
  62   1.0000      -0.389589       -10.6013
  63   1.0000      -0.385658       -10.4943
  64   1.0000      -0.376195       -10.2368
  65   1.0000      -0.375172       -10.2089
  66   1.0000      -0.367153        -9.9907
  67   1.0000      -0.354818        -9.6551
  68   1.0000      -0.331144        -9.0109
  69   1.0000      -0.328753        -8.9458
  70   1.0000      -0.327522        -8.9123
  71   1.0000      -0.316873        -8.6226
  72   1.0000      -0.307309        -8.3623
  73   1.0000      -0.281657        -7.6643
  74   1.0000      -0.276566        -7.5257
  75   1.0000      -0.271904        -7.3989
  76   1.0000      -0.259988        -7.0746
  77   1.0000      -0.233361        -6.3501
  78   1.0000      -0.193000        -5.2518
  79   1.0000      -0.160300        -4.3620
  80   0.0000      -0.101111        -2.7514
  81   0.0000      -0.031975        -0.8701
  82   0.0000      -0.004282        -0.1165
  83   0.0000       0.007122         0.1938
  84   0.0000       0.027050         0.7361

                 SPIN DOWN ORBITALS
  NO   OCC          E(Eh)            E(eV)
   0   1.0000     -19.167140      -521.5644
   1   1.0000     -19.165619      -521.5230
   2   1.0000     -19.139149      -520.8027
   3   1.0000     -19.085112      -519.3323
   4   1.0000     -19.081950      -519.2462
   5   1.0000     -14.559311      -396.1790
   6   1.0000     -14.475471      -393.8976
   7   1.0000     -14.411208      -392.1489
   8   1.0000     -14.331930      -389.9916
   9   1.0000     -10.234242      -278.4879
  10   1.0000     -10.224735      -278.2292
  11   1.0000     -10.216875      -278.0153
  12   1.0000     -10.209408      -277.8121
  13   1.0000     -10.198053      -277.5031
  14   1.0000     -10.193375      -277.3758
  15   1.0000     -10.192162      -277.3428
  16   1.0000     -10.187668      -277.2205
  17   1.0000     -10.187515      -277.2164
  18   1.0000     -10.185840      -277.1708
  19   1.0000     -10.185371      -277.1580
  20   1.0000     -10.159693      -276.4593
  21   1.0000      -1.237948       -33.6863
  22   1.0000      -1.132154       -30.8075
  23   1.0000      -1.062341       -28.9078
  24   1.0000      -1.022599       -27.8263
  25   1.0000      -0.996623       -27.1195
  26   1.0000      -0.955037       -25.9879
  27   1.0000      -0.921755       -25.0822
  28   1.0000      -0.890553       -24.2332
  29   1.0000      -0.831230       -22.6189
  30   1.0000      -0.798772       -21.7357
  31   1.0000      -0.781703       -21.2712
  32   1.0000      -0.758198       -20.6316
  33   1.0000      -0.716351       -19.4929
  34   1.0000      -0.703344       -19.1390
  35   1.0000      -0.694047       -18.8860
  36   1.0000      -0.658208       -17.9108
  37   1.0000      -0.631042       -17.1715
  38   1.0000      -0.602068       -16.3831
  39   1.0000      -0.600123       -16.3302
  40   1.0000      -0.573699       -15.6112
  41   1.0000      -0.560241       -15.2449
  42   1.0000      -0.545259       -14.8373
  43   1.0000      -0.543018       -14.7763
  44   1.0000      -0.536961       -14.6115
  45   1.0000      -0.529211       -14.4006
  46   1.0000      -0.519808       -14.1447
  47   1.0000      -0.503831       -13.7099
  48   1.0000      -0.488345       -13.2885
  49   1.0000      -0.486679       -13.2432
  50   1.0000      -0.481950       -13.1145
  51   1.0000      -0.478167       -13.0116
  52   1.0000      -0.471496       -12.8301
  53   1.0000      -0.466101       -12.6833
  54   1.0000      -0.457157       -12.4399
  55   1.0000      -0.444496       -12.0953
  56   1.0000      -0.433412       -11.7938
  57   1.0000      -0.414762       -11.2863
  58   1.0000      -0.412495       -11.2245
  59   1.0000      -0.407075       -11.0771
  60   1.0000      -0.393411       -10.7053
  61   1.0000      -0.390091       -10.6149
  62   1.0000      -0.386614       -10.5203
  63   1.0000      -0.385654       -10.4942
  64   1.0000      -0.376057       -10.2330
  65   1.0000      -0.373120       -10.1531
  66   1.0000      -0.364275        -9.9124
  67   1.0000      -0.354769        -9.6538
  68   1.0000      -0.330574        -8.9954
  69   1.0000      -0.328752        -8.9458
  70   1.0000      -0.327521        -8.9123
  71   1.0000      -0.307309        -8.3623
  72   1.0000      -0.283543        -7.7156
  73   1.0000      -0.281655        -7.6642
  74   1.0000      -0.276541        -7.5251
  75   1.0000      -0.271891        -7.3985
  76   1.0000      -0.259959        -7.0739
  77   1.0000      -0.233347        -6.3497
  78   1.0000      -0.192992        -5.2516
  79   0.0000      -0.101111        -2.7514
  80   0.0000      -0.043971        -1.1965
  81   0.0000      -0.031866        -0.8671
  82   0.0000      -0.004266        -0.1161
  83   0.0000       0.007932         0.2158

MULLIKEN ATOMIC CHARGES AND SPIN POPULATIONS
--------------------------------------------
   0 C :   -0.137445   -0.000002
   1 C :   -0.147341   -0.000001
   2 C :    0.221648    0.000011
   3 C :   -0.271547    0.000007
   4 C :    0.138717   -0.000002
   5 C :   -0.169323   -0.000000
   6 H :    0.150627   -0.000000
   7 H :    0.146016    0.000019
   8 H :    0.163803   -0.000000
   9 H :    0.165213    0.000000
  10 N :    0.450876   -0.000000
  11 O :   -0.357661    0.000000
  12 O :   -0.362998   -0.000000
  13 C :   -0.198898   -0.000076
  14 C :   -0.364740    0.000017
  15 H :    0.125872   -0.000027
  16 H :    0.122730    0.000002
  17 H :    0.128441    0.000003
  18 N :    0.419310   -0.000006
  19 O :   -0.581043    0.000108
  20 O :   -0.591665    0.000036
  21 H :    0.361169    0.000444
  22 C :   -0.229931    0.790510
  23 N :   -0.274971    0.183054
  24 C :   -0.096148    0.008373
  25 C :   -0.163058   -0.019693
  26 N :   -0.108583    0.005535
  27 C :   -0.089839   -0.043401
  28 H :    0.151650   -0.028995
  29 H :    0.251026   -0.005268
  30 H :    0.141158   -0.000363
  31 H :    0.115143    0.027996
  32 H :    0.176508    0.001137
  33 H :    0.143515    0.009217
  34 H :    0.272345    0.010233
  35 H :    0.160642    0.005466
  36 H :    0.138149    0.057153
  37 H :    0.368432    0.000287
  38 H :    0.311922   -0.002126
  39 O :   -0.679722    0.000353
Sum of atomic charges         :   -0.0000000

LOEWDIN ATOMIC CHARGES AND SPIN POPULATIONS
-------------------------------------------
   0 C :   -0.123150    0.000001
   1 C :   -0.072866    0.000008
   2 C :   -0.123954    0.000003
   3 C :   -0.052068    0.000001
   4 C :   -0.163309   -0.000000
   5 C :   -0.094285    0.000000
   6 H :    0.156165   -0.000000
   7 H :    0.154145    0.000005
   8 H :    0.164036    0.000000
   9 H :    0.159006    0.000000
  10 N :   -0.010229    0.000000
  11 O :   -0.054031    0.000000
  12 O :   -0.063904   -0.000000
  13 C :   -0.280867    0.000018
  14 C :   -0.289268    0.000008
  15 H :    0.125418    0.000001
  16 H :    0.124965    0.000002
  17 H :    0.131768    0.000001
  18 N :   -0.043762    0.000036
  19 O :   -0.277315    0.000143
  20 O :   -0.297045    0.000041
  21 H :    0.161379    0.000110
  22 C :   -0.288195    0.609643
  23 N :    0.069559    0.210020
  24 C :   -0.273495    0.026311
  25 C :   -0.236922    0.004984
  26 N :    0.220759    0.011681
  27 C :   -0.247008    0.070757
  28 H :    0.132245    0.003714
  29 H :    0.193933    0.004325
  30 H :    0.146874    0.000044
  31 H :    0.133598    0.011771
  32 H :    0.143537    0.000022
  33 H :    0.145686    0.002897
  34 H :    0.218555    0.005764
  35 H :    0.152241    0.003506
  36 H :    0.145937    0.032948
  37 H :    0.181405    0.000359
  38 H :    0.199427    0.000206
  39 O :   -0.268966    0.000668

  Mayer bond orders larger than 0.100000
B(  0-C ,  1-C ) :   1.4134 B(  0-C ,  5-C ) :   1.3928 B(  0-C ,  6-H ) :   0.9772
B(  1-C ,  2-C ) :   1.2896 B(  1-C ,  7-H ) :   0.9664 B(  2-C ,  3-C ) :   1.3795
B(  2-C , 13-C ) :   0.9849 B(  3-C ,  4-C ) :   1.3741 B(  3-C ,  8-H ) :   0.9453
B(  4-C ,  5-C ) :   1.3469 B(  4-C , 10-N ) :   1.0038 B(  5-C ,  9-H ) :   0.9471
B( 10-N , 11-O ) :   1.5849 B( 10-N , 12-O ) :   1.5785 B( 11-O , 12-O ) :   0.1882
B( 13-C , 14-C ) :   0.9877 B( 13-C , 18-N ) :   1.4589 B( 13-C , 19-O ) :   0.1135
B( 13-C , 20-O ) :   0.1155 B( 14-C , 15-H ) :   0.9503 B( 14-C , 16-H ) :   0.9668
B( 14-C , 17-H ) :   0.9767 B( 18-N , 19-O ) :   1.2557 B( 18-N , 20-O ) :   1.3131
B( 21-H , 39-O ) :   0.8464 B( 22-C , 23-N ) :   1.2327 B( 22-C , 27-C ) :   1.0209
B( 22-C , 28-H ) :   0.9637 B( 23-N , 24-C ) :   0.9560 B( 23-N , 29-H ) :   0.9086
B( 24-C , 25-C ) :   0.9986 B( 24-C , 30-H ) :   0.9590 B( 24-C , 31-H ) :   0.9573
B( 25-C , 26-N ) :   0.8943 B( 25-C , 32-H ) :   0.9394 B( 25-C , 33-H ) :   0.9532
B( 26-N , 27-C ) :   0.9067 B( 26-N , 34-H ) :   0.8749 B( 26-N , 38-H ) :   0.8344
B( 27-C , 35-H ) :   0.9550 B( 27-C , 36-H ) :   0.9364 B( 37-H , 39-O ) :   0.8679

Dispersion correction           -0.075266402
FINAL SINGLE POINT ENERGY     -1063.539228194060
Dispersion correction            ... done

DIPOLE MOMENT
-------------
                                X             Y             Z
Electronic contribution:    -19.16523     -12.24453     -16.85411
Nuclear contribution   :     22.67712      15.97697      23.29497
                        -----------------------------------------
Total Dipole Moment    :      3.51188       3.73244       6.44086
                        -----------------------------------------
Magnitude (a.u.)       :      8.23098
Magnitude (Debye)      :     20.92149

VIBRATIONAL FREQUENCIES
-----------------------

Scaling factor for frequencies =  1.000000000 (already applied!)

   0:         0.00 cm**-1
   1:         0.00 cm**-1
   2:         0.00 cm**-1
   3:         0.00 cm**-1
   4:         0.00 cm**-1
   5:         0.00 cm**-1
   6:       -26.80 cm**-1 ***imaginary mode***
   7:        -6.09 cm**-1 ***imaginary mode***
   8:        15.26 cm**-1
   9:        32.19 cm**-1
  10:        35.73 cm**-1
  11:        46.48 cm**-1
  12:        52.14 cm**-1
  13:        62.05 cm**-1
  14:        71.47 cm**-1
  15:        99.00 cm**-1
  16:       114.02 cm**-1
  17:       121.33 cm**-1
  18:       140.88 cm**-1
  19:       163.89 cm**-1
  20:       171.20 cm**-1
  21:       176.57 cm**-1
  22:       219.95 cm**-1
  23:       240.39 cm**-1
  24:       241.94 cm**-1
  25:       268.30 cm**-1
  26:       279.89 cm**-1
  27:       309.84 cm**-1
  28:       316.80 cm**-1
  29:       366.35 cm**-1
  30:       375.92 cm**-1
  31:       398.66 cm**-1
  32:       406.18 cm**-1
  33:       434.06 cm**-1
  34:       444.17 cm**-1
  35:       446.12 cm**-1
  36:       489.60 cm**-1
  37:       513.38 cm**-1
  38:       531.95 cm**-1
  39:       559.80 cm**-1
  40:       619.69 cm**-1
  41:       641.98 cm**-1
  42:       656.67 cm**-1
  43:       694.00 cm**-1
  44:       700.40 cm**-1
  45:       727.25 cm**-1
  46:       745.93 cm**-1
  47:       769.54 cm**-1
  48:       786.12 cm**-1
  49:       823.99 cm**-1
  50:       827.73 cm**-1
  51:       876.40 cm**-1
  52:       886.82 cm**-1
  53:       895.94 cm**-1
  54:       925.39 cm**-1
  55:       927.70 cm**-1
  56:       952.73 cm**-1
  57:       956.12 cm**-1
  58:       995.43 cm**-1
  59:       997.28 cm**-1
  60:      1022.36 cm**-1
  61:      1045.20 cm**-1
  62:      1048.61 cm**-1
  63:      1063.92 cm**-1
  64:      1073.13 cm**-1
  65:      1088.00 cm**-1
  66:      1116.13 cm**-1
  67:      1121.78 cm**-1
  68:      1137.94 cm**-1
  69:      1158.76 cm**-1
  70:      1190.39 cm**-1
  71:      1198.67 cm**-1
  72:      1222.97 cm**-1
  73:      1231.41 cm**-1
  74:      1257.54 cm**-1
  75:      1304.42 cm**-1
  76:      1330.94 cm**-1
  77:      1340.41 cm**-1
  78:      1344.77 cm**-1
  79:      1346.85 cm**-1
  80:      1362.90 cm**-1
  81:      1368.43 cm**-1
  82:      1386.66 cm**-1
  83:      1401.42 cm**-1
  84:      1413.53 cm**-1
  85:      1428.03 cm**-1
  86:      1447.16 cm**-1
  87:      1451.56 cm**-1
  88:      1455.20 cm**-1
  89:      1469.44 cm**-1
  90:      1474.58 cm**-1
  91:      1485.14 cm**-1
  92:      1497.74 cm**-1
  93:      1503.66 cm**-1
  94:      1506.65 cm**-1
  95:      1514.04 cm**-1
  96:      1517.79 cm**-1
  97:      1536.96 cm**-1
  98:      1604.20 cm**-1
  99:      1647.00 cm**-1
 100:      1655.16 cm**-1
 101:      2636.77 cm**-1
 102:      2964.32 cm**-1
 103:      2974.77 cm**-1
 104:      2987.46 cm**-1
 105:      3059.54 cm**-1
 106:      3071.85 cm**-1
 107:      3097.31 cm**-1
 108:      3099.84 cm**-1
 109:      3110.88 cm**-1
 110:      3116.27 cm**-1
 111:      3132.93 cm**-1
 112:      3186.21 cm**-1
 113:      3190.29 cm**-1
 114:      3215.90 cm**-1
 115:      3226.20 cm**-1
 116:      3233.70 cm**-1
 117:      3423.82 cm**-1
 118:      3574.60 cm**-1
 119:      3794.72 cm**-1

IR SPECTRUM
-----------

 Mode   freq       eps      Int      T**2         TX        TY        TZ
       cm**-1   L/(mol*cm) km/mol    a.u.
----------------------------------------------------------------------------
  8:     15.26   0.001336    6.75  0.027333  (-0.031963 -0.110698  0.118563)
  9:     32.19   0.000801    4.05  0.007767  ( 0.023030 -0.052661 -0.066806)
 10:     35.73   0.001626    8.22  0.014197  ( 0.059067  0.098584  0.031446)
 11:     46.48   0.000569    2.87  0.003818  ( 0.058545 -0.007542 -0.018255)
 12:     52.14   0.000190    0.96  0.001138  ( 0.029576  0.002416  0.016060)
 13:     62.05   0.000706    3.57  0.003553  ( 0.017346  0.039283  0.041340)
 14:     71.47   0.002473   12.50  0.010800  (-0.005511  0.053489 -0.088928)
 15:     99.00   0.002920   14.76  0.009204  ( 0.086242  0.004156  0.041823)
 16:    114.02   0.000124    0.63  0.000340  (-0.004151 -0.004324 -0.017447)
 17:    121.33   0.000848    4.29  0.002182  ( 0.013448  0.032826  0.030383)
 18:    140.88   0.004618   23.34  0.010229  (-0.002313 -0.020859 -0.098937)
 19:    163.89   0.000211    1.07  0.000402  ( 0.006621  0.018115 -0.005445)
 20:    171.20   0.000412    2.08  0.000751  (-0.018146 -0.020450  0.001748)
 21:    176.57   0.003482   17.60  0.006155  ( 0.041945  0.061850 -0.023867)
 22:    219.95   0.019597   99.03  0.027804  (-0.063244 -0.018691  0.153150)
 23:    240.39   0.003449   17.43  0.004478  (-0.062825 -0.020797 -0.009914)
 24:    241.94   0.001091    5.52  0.001408  (-0.020213 -0.023606  0.021022)
 25:    268.30   0.000655    3.31  0.000762  ( 0.027277  0.004143  0.001086)
 26:    279.89   0.013910   70.29  0.015509  (-0.118339 -0.038789  0.000399)
 27:    309.84   0.012155   61.43  0.012242  (-0.110274  0.008734 -0.002365)
 28:    316.80   0.021838  110.36  0.021512  (-0.132802 -0.062228 -0.001701)
 29:    366.35   0.004326   21.86  0.003685  (-0.040741  0.007832  0.044312)
 30:    375.92   0.001086    5.49  0.000902  (-0.008369  0.008311  0.027619)
 31:    398.66   0.001034    5.23  0.000810  (-0.026708 -0.001231 -0.009738)
 32:    406.18   0.008944   45.20  0.006872  (-0.003405  0.065040 -0.051281)
 33:    434.06   0.000190    0.96  0.000136  (-0.003581 -0.001187 -0.011050)
 34:    444.17   0.009158   46.28  0.006434  (-0.032772  0.021914 -0.069855)
 35:    446.12   0.010295   52.02  0.007201  (-0.076574  0.015316 -0.033211)
 36:    489.60   0.012054   60.92  0.007683  (-0.021489 -0.078055  0.033598)
 37:    513.38   0.015807   79.88  0.009609  ( 0.024848 -0.038096  0.086833)
 38:    531.95   0.000821    4.15  0.000481  (-0.017165 -0.010743 -0.008448)
 39:    559.80   0.000691    3.49  0.000385  ( 0.000716 -0.019561  0.001348)
 40:    619.69   0.004669   23.60  0.002351  ( 0.038171 -0.021238  0.021051)
 41:    641.98   0.010555   53.34  0.005131  ( 0.057437 -0.001126  0.042786)
 42:    656.67   0.002042   10.32  0.000970  ( 0.030060  0.006976  0.004265)
 43:    694.00   0.012658   63.97  0.005692  (-0.011447  0.042109 -0.061544)
 44:    700.40   0.004123   20.83  0.001837  ( 0.029936  0.025596  0.016897)
 45:    727.25   0.008946   45.21  0.003839  (-0.040869  0.008662 -0.045752)
 46:    745.93   0.001769    8.94  0.000740  (-0.008485  0.015496  0.020685)
 47:    769.54   0.011784   59.55  0.004778  ( 0.027476  0.040520 -0.048802)
 48:    786.12   0.015975   80.73  0.006342  ( 0.046851  0.051921  0.038090)
 49:    823.99   0.001425    7.20  0.000540  ( 0.000904  0.012727 -0.019412)
 50:    827.73   0.000407    2.06  0.000153  (-0.006323  0.008980 -0.005720)
 51:    876.40   0.001839    9.29  0.000655  (-0.020417 -0.007017 -0.013741)
 52:    886.82   0.004493   22.71  0.001581  (-0.027909  0.002777  0.028186)
 53:    895.94   0.002813   14.21  0.000980  ( 0.018161  0.013335  0.021725)
 54:    925.39   0.003909   19.76  0.001318  (-0.019939 -0.018624  0.023956)
 55:    927.70   0.008376   42.33  0.002818  (-0.037560 -0.033531 -0.016807)
 56:    952.73   0.000900    4.55  0.000295  ( 0.004467  0.006859 -0.015093)
 57:    956.12   0.011825   59.76  0.003860  (-0.023563 -0.057395  0.003178)
 58:    995.43   0.002683   13.56  0.000841  ( 0.015349  0.014773 -0.019678)
 59:    997.28   0.000035    0.18  0.000011  (-0.000410 -0.003030 -0.001313)
 60:   1022.36   0.000352    1.78  0.000108  (-0.004256 -0.001044 -0.009399)
 61:   1045.20   0.030617  154.73  0.009141  (-0.062802 -0.071082  0.012023)
 62:   1048.61   0.001640    8.29  0.000488  ( 0.004607 -0.018921 -0.010426)
 63:   1063.92   0.002548   12.87  0.000747  ( 0.013815 -0.020916  0.010903)
 64:   1073.13   0.002782   14.06  0.000809  ( 0.019899  0.007328 -0.018955)
 65:   1088.00   0.013766   69.57  0.003948  (-0.060557  0.016755  0.000646)
 66:   1116.13   0.022780  115.12  0.006369  ( 0.049924  0.047129  0.040690)
 67:   1121.78   0.039011  197.14  0.010852  ( 0.073090  0.052367  0.052609)
 68:   1137.94   0.001821    9.20  0.000499  (-0.006209 -0.017993 -0.011705)
 69:   1158.76   0.051557  260.55  0.013885  ( 0.058199  0.093036 -0.042918)
 70:   1190.39   0.001354    6.84  0.000355  (-0.011008  0.014354 -0.005257)
 71:   1198.67   0.005375   27.17  0.001399  ( 0.014538 -0.025945 -0.022692)
 72:   1222.97   0.021065  106.45  0.005375  ( 0.065872 -0.024628  0.020721)
 73:   1231.41   0.068783  347.60  0.017431  (-0.114813  0.050937 -0.040675)
 74:   1257.54   0.011373   57.47  0.002822  ( 0.030870 -0.041849 -0.010858)
 75:   1304.42   0.015407   77.86  0.003686  (-0.005344  0.058923  0.013613)
 76:   1330.94   0.015425   77.95  0.003617  ( 0.007986  0.058518  0.011337)
 77:   1340.41   0.001105    5.58  0.000257  ( 0.011602  0.010953 -0.001609)
 78:   1344.77   0.045141  228.12  0.010475  (-0.015614 -0.077570 -0.064918)
 79:   1346.85   0.112069  566.35  0.025966  ( 0.051241  0.101180  0.114469)
 80:   1362.90   0.009070   45.84  0.002077  ( 0.031451 -0.032949 -0.001421)
 81:   1368.43   0.007283   36.80  0.001661  (-0.034808  0.014874  0.015097)
 82:   1386.66   0.016494   83.36  0.003712  ( 0.008708 -0.055327 -0.023982)
 83:   1401.42   0.007320   36.99  0.001630  ( 0.023914  0.032462  0.002070)
 84:   1413.53   0.001494    7.55  0.000330  (-0.005742  0.014662  0.009051)
 85:   1428.03   0.008680   43.87  0.001897  ( 0.019075 -0.035581 -0.016339)
 86:   1447.16   0.040012  202.20  0.008628  (-0.085970 -0.033446  0.010892)
 87:   1451.56   0.001089    5.50  0.000234  ( 0.001948 -0.014453  0.004620)
 88:   1455.20   0.005121   25.88  0.001098  (-0.010165 -0.017612  0.026166)
 89:   1469.44   0.008758   44.26  0.001860  ( 0.019922  0.037862 -0.005435)
 90:   1474.58   0.002647   13.38  0.000560  ( 0.021972  0.003090 -0.008235)
 91:   1485.14   0.000952    4.81  0.000200  (-0.007507  0.002817  0.011653)
 92:   1497.74   0.002696   13.63  0.000562  (-0.002189 -0.022279  0.007785)
 93:   1503.66   0.001151    5.82  0.000239  ( 0.002002 -0.013438 -0.007368)
 94:   1506.65   0.042582  215.19  0.008820  (-0.091304  0.013691  0.017198)
 95:   1514.04   0.010657   53.86  0.002197  (-0.042434  0.004496  0.019384)
 96:   1517.79   0.082427  416.55  0.016947  ( 0.062160  0.113458 -0.014518)
 97:   1536.96   0.107073  541.10  0.021740  (-0.147391 -0.001096 -0.003837)
 98:   1604.20   0.001626    8.22  0.000316  (-0.015139  0.006965  0.006209)
 99:   1647.00   0.000497    2.51  0.000094  ( 0.005722 -0.001648  0.007666)
100:   1655.16   0.018376   92.86  0.003465  (-0.035307  0.001865 -0.047058)
101:   2636.77   0.077043  389.34  0.009118  ( 0.015482  0.033976  0.087886)
102:   2964.32   0.015123   76.43  0.001592  (-0.018674 -0.011440  0.033353)
103:   2974.77   0.012568   63.52  0.001318  (-0.009790  0.004182  0.034715)
104:   2987.46   0.013876   70.12  0.001449  (-0.014546  0.034613  0.006311)
105:   3059.54   0.005854   29.58  0.000597  ( 0.005408  0.004568 -0.023388)
106:   3071.85   0.008871   44.83  0.000901  ( 0.016790  0.006441  0.024038)
107:   3097.31   0.005255   26.56  0.000529  (-0.021370  0.006575 -0.005437)
108:   3099.84   0.005783   29.22  0.000582  ( 0.021147  0.011428  0.002081)
109:   3110.88   0.005429   27.44  0.000545  (-0.009006 -0.021518  0.000695)
110:   3116.27   0.191876  969.66  0.019215  ( 0.104158  0.090694 -0.011843)
111:   3132.93   0.024879  125.73  0.002478  (-0.034755 -0.035015 -0.006643)
112:   3186.21   0.001636    8.27  0.000160  ( 0.011294 -0.005212 -0.002337)
113:   3190.29   0.001192    6.02  0.000117  (-0.005041  0.008970  0.003267)
114:   3215.90   0.001411    7.13  0.000137  ( 0.000539  0.007810  0.008699)
115:   3226.20   0.000893    4.51  0.000086  ( 0.000506 -0.006764 -0.006353)
116:   3233.70   0.000980    4.95  0.000095  ( 0.007415  0.004097  0.004773)
117:   3423.82   0.013943   70.46  0.001271  ( 0.000914  0.019159 -0.030048)
118:   3574.60   0.011970   60.49  0.001045  (-0.029778 -0.012571  0.000488)
119:   3794.72   0.024643  124.54  0.002027  ( 0.011616 -0.021999  0.037519)

--------------------------
THERMOCHEMISTRY AT 298.15K
--------------------------

Temperature         ... 298.15 K
Pressure            ... 1.00 atm
Total Mass          ... 300.30 AMU

Throughout the following assumptions are being made:
  (1) The electronic state is orbitally nondegenerate
      but the spin degeneracy is treated
  (2) There are no thermally accessible electronically excited states
  (3) Hindered rotations indicated by low frequency modes are not
      treated as such but are treated as vibrations and this may
      cause some error
  (4) All equations used are the standard statistical mechanics
      equations for an ideal gas
  (5) All vibrations are strictly harmonic

freq.      15.26  E(vib)   ...       0.57
freq.      32.19  E(vib)   ...       0.55
freq.      35.73  E(vib)   ...       0.54
freq.      46.48  E(vib)   ...       0.53
freq.      52.14  E(vib)   ...       0.52
freq.      62.05  E(vib)   ...       0.51
freq.      71.47  E(vib)   ...       0.50
freq.      99.00  E(vib)   ...       0.46
freq.     114.02  E(vib)   ...       0.44
freq.     121.33  E(vib)   ...       0.44
freq.     140.88  E(vib)   ...       0.41
freq.     163.89  E(vib)   ...       0.39
freq.     171.20  E(vib)   ...       0.38
freq.     176.57  E(vib)   ...       0.38
freq.     219.95  E(vib)   ...       0.33
freq.     240.39  E(vib)   ...       0.31
freq.     241.94  E(vib)   ...       0.31
freq.     268.30  E(vib)   ...       0.29
freq.     279.89  E(vib)   ...       0.28
freq.     309.84  E(vib)   ...       0.26
freq.     316.80  E(vib)   ...       0.25
freq.     366.35  E(vib)   ...       0.22
freq.     375.92  E(vib)   ...       0.21
freq.     398.66  E(vib)   ...       0.19
freq.     406.18  E(vib)   ...       0.19
freq.     434.06  E(vib)   ...       0.17
freq.     444.17  E(vib)   ...       0.17
freq.     446.12  E(vib)   ...       0.17
freq.     489.60  E(vib)   ...       0.15
freq.     513.38  E(vib)   ...       0.13
freq.     531.95  E(vib)   ...       0.13
freq.     559.80  E(vib)   ...       0.12
freq.     619.69  E(vib)   ...       0.09
freq.     641.98  E(vib)   ...       0.09
freq.     656.67  E(vib)   ...       0.08
freq.     694.00  E(vib)   ...       0.07
freq.     700.40  E(vib)   ...       0.07
freq.     727.25  E(vib)   ...       0.06
freq.     745.93  E(vib)   ...       0.06
freq.     769.54  E(vib)   ...       0.06
freq.     786.12  E(vib)   ...       0.05
freq.     823.99  E(vib)   ...       0.05
freq.     827.73  E(vib)   ...       0.04
freq.     876.40  E(vib)   ...       0.04
freq.     886.82  E(vib)   ...       0.04
freq.     895.94  E(vib)   ...       0.03
freq.     925.39  E(vib)   ...       0.03
freq.     927.70  E(vib)   ...       0.03
freq.     952.73  E(vib)   ...       0.03
freq.     956.12  E(vib)   ...       0.03
freq.     995.43  E(vib)   ...       0.02
freq.     997.28  E(vib)   ...       0.02
freq.    1022.36  E(vib)   ...       0.02
freq.    1045.20  E(vib)   ...       0.02
freq.    1048.61  E(vib)   ...       0.02
freq.    1063.92  E(vib)   ...       0.02
freq.    1073.13  E(vib)   ...       0.02
freq.    1088.00  E(vib)   ...       0.02
freq.    1116.13  E(vib)   ...       0.01
freq.    1121.78  E(vib)   ...       0.01
freq.    1137.94  E(vib)   ...       0.01
freq.    1158.76  E(vib)   ...       0.01
freq.    1190.39  E(vib)   ...       0.01
freq.    1198.67  E(vib)   ...       0.01
freq.    1222.97  E(vib)   ...       0.01
freq.    1231.41  E(vib)   ...       0.01
freq.    1257.54  E(vib)   ...       0.01
freq.    1304.42  E(vib)   ...       0.01
freq.    1330.94  E(vib)   ...       0.01
freq.    1340.41  E(vib)   ...       0.01
freq.    1344.77  E(vib)   ...       0.01
freq.    1346.85  E(vib)   ...       0.01
freq.    1362.90  E(vib)   ...       0.01
freq.    1368.43  E(vib)   ...       0.01
freq.    1386.66  E(vib)   ...       0.00
freq.    1401.42  E(vib)   ...       0.00
freq.    1413.53  E(vib)   ...       0.00
freq.    1428.03  E(vib)   ...       0.00
freq.    1447.16  E(vib)   ...       0.00
freq.    1451.56  E(vib)   ...       0.00
freq.    1455.20  E(vib)   ...       0.00
freq.    1469.44  E(vib)   ...       0.00
freq.    1474.58  E(vib)   ...       0.00
freq.    1485.14  E(vib)   ...       0.00
freq.    1497.74  E(vib)   ...       0.00
freq.    1503.66  E(vib)   ...       0.00
freq.    1506.65  E(vib)   ...       0.00
freq.    1514.04  E(vib)   ...       0.00
freq.    1517.79  E(vib)   ...       0.00
freq.    1536.96  E(vib)   ...       0.00
freq.    1604.20  E(vib)   ...       0.00
freq.    1647.00  E(vib)   ...       0.00
freq.    1655.16  E(vib)   ...       0.00
freq.    2636.77  E(vib)   ...       0.00
freq.    2964.32  E(vib)   ...       0.00
freq.    2974.77  E(vib)   ...       0.00
freq.    2987.46  E(vib)   ...       0.00
freq.    3059.54  E(vib)   ...       0.00
freq.    3071.85  E(vib)   ...       0.00
freq.    3097.31  E(vib)   ...       0.00
freq.    3099.84  E(vib)   ...       0.00
freq.    3110.88  E(vib)   ...       0.00
freq.    3116.27  E(vib)   ...       0.00
freq.    3132.93  E(vib)   ...       0.00
freq.    3186.21  E(vib)   ...       0.00
freq.    3190.29  E(vib)   ...       0.00
freq.    3215.90  E(vib)   ...       0.00
freq.    3226.20  E(vib)   ...       0.00
freq.    3233.70  E(vib)   ...       0.00
freq.    3423.82  E(vib)   ...       0.00
freq.    3574.60  E(vib)   ...       0.00
freq.    3794.72  E(vib)   ...       0.00

------------
INNER ENERGY
------------

The inner energy is: U= E(el) + E(ZPE) + E(vib) + E(rot) + E(trans)
    E(el)   - is the total energy from the electronic structure calculation
              = E(kin-el) + E(nuc-el) + E(el-el) + E(nuc-nuc)
    E(ZPE)  - the the zero temperature vibrational energy from the frequency calculation
    E(vib)  - the the finite temperature correction to E(ZPE) due to population
              of excited vibrational states
    E(rot)  - is the rotational thermal energy
    E(trans)- is the translational thermal energy

Summary of contributions to the inner energy U:
Electronic energy                ...  -1063.53922818 Eh
Zero point energy                ...      0.31762541 Eh     199.31 kcal/mol
Thermal vibrational correction   ...      0.01882101 Eh      11.81 kcal/mol
Thermal rotational correction    ...      0.00141627 Eh       0.89 kcal/mol
Thermal translational correction ...      0.00141627 Eh       0.89 kcal/mol
-----------------------------------------------------------------------
Total thermal energy                  -1063.19994922 Eh

Summary of corrections to the electronic energy:
(perhaps to be used in another calculation)
Total thermal correction                  0.02165355 Eh      13.59 kcal/mol
Non-thermal (ZPE) correction              0.31762541 Eh     199.31 kcal/mol
-----------------------------------------------------------------------
Total correction                          0.33927896 Eh     212.90 kcal/mol

Rotational constants in cm-1:     0.029114     0.003357     0.003192

                             ****ORCA TERMINATED NORMALLY****
TOTAL RUN TIME: 0 days 2 hours 1 minutes 53 seconds 818 msec
