                         Program Version 5.0.4 -  RELEASE  -
|  1> !  NUMFREQ B3LYP def2-TZVP CPCM D3
|  2> %pal nprocs 102 end
|  3> %cpcm epsilon 78.4 end
|  4> *xyz -1 1
|  5> C   1.74664914469551 -1.12524209977148 0.32825129711141
|  6> H   2.79429013105963 -0.85377606214543 0.41680195026647
|  7> N   1.41147988328853 -1.75775954384642 1.67184082697622
|  8> O   2.29900489493833 -1.8366859556259 2.50693774520304
|  9> O   0.26895624092889 -2.15393671078406 1.85081393912612
| 10> C   5.40798291764289 -1.58764285068961 0.68835110790065
| 11> O   5.75488551216517 -1.07942624194086 1.77866167524219
| 12> O   5.06377992060176 -0.94112109531909 -0.34955716864093
| 13> C   5.35270292810827 -3.10964158936012 0.58353343415048
| 14> H   5.59657531735638 -3.44483641031663 -0.42478437665279
| 15> H   4.33206296366951 -3.43748770620464 0.80187139388745
| 16> H   6.02075554057954 -3.58251108034458 1.30301660250692
| 17> C   0.87684650199348 0.107924764134 0.14607774441802
| 18> H   1.02233424978638 0.81277857149141 0.96570863389453
| 19> H   -0.17597090306966 -0.16263338395041 0.08278453434777
| 20> H   1.16644241360949 0.59786964685848 -0.78376186280012
| 21> C   1.5648228573427 -2.17334385434069 -0.75747105662007
| 22> H   0.52100959789985 -2.47194440572284 -0.8463349278369
| 23> H   2.17769411577567 -3.05225479319801 -0.55930667590586
| 24> H   1.88642302826028 -1.7369401771216 -1.70364620958815
| 25> H   4.72897011923484 0.68954299558818 -0.10935654382971
| 26> O   4.50566624103455 1.65880211709932 -0.0459318534273
| 27> H   4.51823638309771 1.85480586551107 0.89861979027051
| 28> *
| 29>
| 30>                          ****END OF INPUT****

CARTESIAN COORDINATES (ANGSTROEM)
---------------------------------
  C      1.746649   -1.125242    0.328251
  H      2.794290   -0.853776    0.416802
  N      1.411480   -1.757760    1.671841
  O      2.299005   -1.836686    2.506938
  O      0.268956   -2.153937    1.850814
  C      5.407983   -1.587643    0.688351
  O      5.754886   -1.079426    1.778662
  O      5.063780   -0.941121   -0.349557
  C      5.352703   -3.109642    0.583533
  H      5.596575   -3.444836   -0.424784
  H      4.332063   -3.437488    0.801871
  H      6.020756   -3.582511    1.303017
  C      0.876847    0.107925    0.146078
  H      1.022334    0.812779    0.965709
  H     -0.175971   -0.162633    0.082785
  H      1.166442    0.597870   -0.783762
  C      1.564823   -2.173344   -0.757471
  H      0.521010   -2.471944   -0.846335
  H      2.177694   -3.052255   -0.559307
  H      1.886423   -1.736940   -1.703646
  H      4.728970    0.689543   -0.109357
  O      4.505666    1.658802   -0.045932
  H      4.518236    1.854806    0.898620

 Total Charge           Charge          ....   -1
 Multiplicity           Mult            ....    1
 Number of Electrons    NEL             ....   90
 Basis Dimension        Dim             ....  413

ORBITAL ENERGIES
----------------

  NO   OCC          E(Eh)            E(eV)
   0   2.0000     -19.167080      -521.5628
   1   2.0000     -19.165871      -521.5299
   2   2.0000     -19.090719      -519.4849
   3   2.0000     -19.062560      -518.7186
   4   2.0000     -19.057299      -518.5755
   5   2.0000     -14.546809      -395.8388
   6   2.0000     -10.248389      -278.8729
   7   2.0000     -10.224700      -278.2282
   8   2.0000     -10.166488      -276.6442
   9   2.0000     -10.166272      -276.6383
  10   2.0000     -10.145278      -276.0671
  11   2.0000      -1.235591       -33.6221
  12   2.0000      -1.062426       -28.9101
  13   2.0000      -1.019884       -27.7524
  14   2.0000      -0.972200       -26.4549
  15   2.0000      -0.928949       -25.2780
  16   2.0000      -0.838131       -22.8067
  17   2.0000      -0.704805       -19.1787
  18   2.0000      -0.699826       -19.0432
  19   2.0000      -0.694799       -18.9065
  20   2.0000      -0.586021       -15.9464
  21   2.0000      -0.538306       -14.6480
  22   2.0000      -0.536341       -14.5946
  23   2.0000      -0.519505       -14.1364
  24   2.0000      -0.512528       -13.9466
  25   2.0000      -0.479438       -13.0462
  26   2.0000      -0.460827       -12.5398
  27   2.0000      -0.423968       -11.5367
  28   2.0000      -0.421634       -11.4732
  29   2.0000      -0.419970       -11.4280
  30   2.0000      -0.411200       -11.1893
  31   2.0000      -0.409273       -11.1369
  32   2.0000      -0.392103       -10.6697
  33   2.0000      -0.374305       -10.1853
  34   2.0000      -0.365644        -9.9497
  35   2.0000      -0.360311        -9.8046
  36   2.0000      -0.358185        -9.7467
  37   2.0000      -0.344372        -9.3708
  38   2.0000      -0.326392        -8.8816
  39   2.0000      -0.311630        -8.4799
  40   2.0000      -0.304245        -8.2789
  41   2.0000      -0.290477        -7.9043
  42   2.0000      -0.252821        -6.8796
  43   2.0000      -0.241855        -6.5812
  44   2.0000      -0.231475        -6.2988
  45   0.0000      -0.075769        -2.0618
  46   0.0000       0.034877         0.9491
  47   0.0000       0.054926         1.4946
  48   0.0000       0.062548         1.7020
  49   0.0000       0.071598         1.9483

MULLIKEN ATOMIC CHARGES
-----------------------
   0 C :    0.077805
   1 H :    0.092410
   2 N :    0.437501
   3 O :   -0.351407
   4 O :   -0.360012
   5 C :    0.328499
   6 O :   -0.576079
   7 O :   -0.603561
   8 C :   -0.368924
   9 H :    0.106485
  10 H :    0.124029
  11 H :    0.105924
  12 C :   -0.376084
  13 H :    0.137323
  14 H :    0.132068
  15 H :    0.134891
  16 C :   -0.375479
  17 H :    0.130814
  18 H :    0.142578
  19 H :    0.134817
  20 H :    0.346792
  21 O :   -0.750905
  22 H :    0.330516
Sum of atomic charges:   -1.0000000

LOEWDIN ATOMIC CHARGES
----------------------
   0 C :   -0.280351
   1 H :    0.154696
   2 N :   -0.032357
   3 O :   -0.052155
   4 O :   -0.055317
   5 C :   -0.682387
   6 O :   -0.125379
   7 O :   -0.116841
   8 C :   -0.301285
   9 H :    0.119214
  10 H :    0.126950
  11 H :    0.116987
  12 C :   -0.273120
  13 H :    0.129320
  14 H :    0.127332
  15 H :    0.136357
  16 C :   -0.271152
  17 H :    0.127134
  18 H :    0.128629
  19 H :    0.137687
  20 H :    0.126770
  21 O :   -0.392481
  22 H :    0.151750

  Mayer bond orders larger than 0.100000
B(  0-C ,  1-H ) :   0.9336 B(  0-C ,  2-N ) :   0.8296 B(  0-C , 12-C ) :   0.9417
B(  0-C , 16-C ) :   0.9489 B(  2-N ,  3-O ) :   1.6105 B(  2-N ,  4-O ) :   1.5988
B(  3-O ,  4-O ) :   0.2077 B(  5-C ,  6-O ) :   1.8106 B(  5-C ,  7-O ) :   1.5740
B(  5-C ,  8-C ) :   0.9479 B(  7-O , 20-H ) :   0.1753 B(  8-C ,  9-H ) :   0.9642
B(  8-C , 10-H ) :   0.9503 B(  8-C , 11-H ) :   0.9741 B( 12-C , 13-H ) :   0.9707
B( 12-C , 14-H ) :   0.9638 B( 12-C , 15-H ) :   0.9646 B( 16-C , 17-H ) :   0.9601
B( 16-C , 18-H ) :   0.9707 B( 16-C , 19-H ) :   0.9627 B( 20-H , 21-O ) :   0.7786
B( 21-O , 22-H ) :   0.8956

Dispersion correction           -0.030825409
FINAL SINGLE POINT ENERGY      -628.707016764237
Dispersion correction            ... done

DIPOLE MOMENT
-------------
                                X             Y             Z
Electronic contribution:     -0.72189      -1.28171       7.67433
Nuclear contribution   :     -2.79030      -0.03381      -8.54536
                        -----------------------------------------
Total Dipole Moment    :     -3.51219      -1.31551      -0.87103
                        -----------------------------------------
Magnitude (a.u.)       :      3.85029
Magnitude (Debye)      :      9.78666

VIBRATIONAL FREQUENCIES
-----------------------

Scaling factor for frequencies =  1.000000000 (already applied!)

   0:         0.00 cm**-1
   1:         0.00 cm**-1
   2:         0.00 cm**-1
   3:         0.00 cm**-1
   4:         0.00 cm**-1
   5:         0.00 cm**-1
   6:       -24.31 cm**-1 ***imaginary mode***
   7:        -3.40 cm**-1 ***imaginary mode***
   8:        15.35 cm**-1
   9:        35.10 cm**-1
  10:        45.46 cm**-1
  11:        54.56 cm**-1
  12:        69.25 cm**-1
  13:        80.03 cm**-1
  14:        87.97 cm**-1
  15:       100.92 cm**-1
  16:       145.27 cm**-1
  17:       215.93 cm**-1
  18:       223.12 cm**-1
  19:       245.93 cm**-1
  20:       264.53 cm**-1
  21:       301.35 cm**-1
  22:       340.24 cm**-1
  23:       467.68 cm**-1
  24:       498.59 cm**-1
  25:       525.03 cm**-1
  26:       612.50 cm**-1
  27:       631.09 cm**-1
  28:       656.38 cm**-1
  29:       753.23 cm**-1
  30:       828.02 cm**-1
  31:       864.49 cm**-1
  32:       905.69 cm**-1
  33:       912.54 cm**-1
  34:       956.30 cm**-1
  35:       964.55 cm**-1
  36:      1023.44 cm**-1
  37:      1056.68 cm**-1
  38:      1115.05 cm**-1
  39:      1151.82 cm**-1
  40:      1197.67 cm**-1
  41:      1339.35 cm**-1
  42:      1355.97 cm**-1
  43:      1367.29 cm**-1
  44:      1389.30 cm**-1
  45:      1395.62 cm**-1
  46:      1398.11 cm**-1
  47:      1436.38 cm**-1
  48:      1450.94 cm**-1
  49:      1468.62 cm**-1
  50:      1470.65 cm**-1
  51:      1473.50 cm**-1
  52:      1479.04 cm**-1
  53:      1491.31 cm**-1
  54:      1560.71 cm**-1
  55:      1573.05 cm**-1
  56:      1652.26 cm**-1
  57:      3030.68 cm**-1
  58:      3046.55 cm**-1
  59:      3050.72 cm**-1
  60:      3090.51 cm**-1
  61:      3114.14 cm**-1
  62:      3115.34 cm**-1
  63:      3119.47 cm**-1
  64:      3121.86 cm**-1
  65:      3127.64 cm**-1
  66:      3136.34 cm**-1
  67:      3152.58 cm**-1
  68:      3806.28 cm**-1

IR SPECTRUM
-----------

 Mode   freq       eps      Int      T**2         TX        TY        TZ
       cm**-1   L/(mol*cm) km/mol    a.u.
----------------------------------------------------------------------------
  8:     15.35   0.001555    7.86  0.031618  ( 0.153425  0.045209  0.077684)
  9:     35.10   0.000383    1.94  0.003409  ( 0.002388 -0.054932  0.019629)
 10:     45.46   0.000046    0.23  0.000317  ( 0.004110  0.008570  0.015043)
 11:     54.56   0.000202    1.02  0.001154  (-0.023398 -0.006560  0.023741)
 12:     69.25   0.001332    6.73  0.006004  (-0.033678  0.047182 -0.051421)
 13:     80.03   0.004034   20.39  0.015731  ( 0.124180 -0.016226 -0.006865)
 14:     87.97   0.000513    2.59  0.001821  (-0.041916 -0.007119 -0.003721)
 15:    100.92   0.000067    0.34  0.000208  (-0.004037 -0.010894  0.008525)
 16:    145.27   0.037481  189.41  0.080514  (-0.275885 -0.062455  0.022372)
 17:    215.93   0.000025    0.13  0.000037  (-0.000782  0.002201  0.005599)
 18:    223.12   0.005828   29.45  0.008151  ( 0.024386 -0.085470 -0.015858)
 19:    245.93   0.000102    0.52  0.000130  (-0.000190 -0.010707  0.003861)
 20:    264.53   0.001760    8.90  0.002077  (-0.015959  0.040838  0.012420)
 21:    301.35   0.000858    4.34  0.000889  ( 0.005018 -0.008186  0.028226)
 22:    340.24   0.000144    0.73  0.000132  ( 0.003636 -0.001527  0.010792)
 23:    467.68   0.001099    5.55  0.000733  (-0.012672  0.015309 -0.018386)
 24:    498.59   0.019380   97.94  0.012130  (-0.014863  0.088020  0.064507)
 25:    525.03   0.002048   10.35  0.001217  (-0.000051  0.013357 -0.032229)
 26:    612.50   0.003063   15.48  0.001561  (-0.014834 -0.035905  0.007165)
 27:    631.09   0.001685    8.52  0.000833  ( 0.015791  0.006297 -0.023332)
 28:    656.38   0.013528   68.37  0.006432  (-0.023775  0.075650  0.011982)
 29:    753.23   0.000592    2.99  0.000245  ( 0.001929 -0.014016 -0.006709)
 30:    828.02   0.032133  162.39  0.012110  ( 0.107274  0.020677 -0.013238)
 31:    864.49   0.005446   27.52  0.001966  ( 0.013519  0.019390 -0.037512)
 32:    905.69   0.001595    8.06  0.000550  (-0.002223  0.007454 -0.022116)
 33:    912.54   0.007205   36.41  0.002464  ( 0.009551  0.048408  0.005425)
 34:    956.30   0.000922    4.66  0.000301  ( 0.009698 -0.014271 -0.001760)
 35:    964.55   0.000058    0.29  0.000019  ( 0.004263 -0.000079  0.000715)
 36:   1023.44   0.005035   25.45  0.001535  (-0.015926  0.010847 -0.034118)
 37:   1056.68   0.002431   12.28  0.000718  ( 0.025191  0.005068 -0.007589)
 38:   1115.05   0.009136   46.17  0.002557  (-0.041527 -0.018795  0.021891)
 39:   1151.82   0.001770    8.94  0.000479  (-0.008034  0.020198  0.002628)
 40:   1197.67   0.002782   14.06  0.000725  (-0.024788 -0.001541 -0.010395)
 41:   1339.35   0.021463  108.46  0.005001  ( 0.062782 -0.003936  0.032306)
 42:   1355.97   0.012885   65.12  0.002965  ( 0.005036 -0.051633  0.016555)
 43:   1367.29   0.000540    2.73  0.000123  (-0.009236 -0.004419  0.004286)
 44:   1389.30   0.007441   37.60  0.001671  (-0.009929 -0.012266  0.037714)
 45:   1395.62   0.000385    1.95  0.000086  (-0.000206  0.000401  0.009266)
 46:   1398.11   0.089378  451.68  0.019949  (-0.006939  0.138013 -0.029218)
 47:   1436.38   0.021421  108.25  0.004654  ( 0.011187 -0.023028  0.063232)
 48:   1450.94   0.017206   86.95  0.003701  ( 0.020083  0.005476  0.057160)
 49:   1468.62   0.003546   17.92  0.000753  ( 0.018539 -0.020235  0.000511)
 50:   1470.65   0.000800    4.04  0.000170  (-0.003114  0.012104  0.003683)
 51:   1473.50   0.000113    0.57  0.000024  ( 0.003364  0.003298  0.001305)
 52:   1479.04   0.002888   14.59  0.000609  ( 0.023744  0.003321  0.005876)
 53:   1491.31   0.006165   31.16  0.001290  ( 0.026236  0.014894 -0.019492)
 54:   1560.71   0.085197  430.55  0.017035  ( 0.128226  0.020576  0.013030)
 55:   1573.05   0.191544  967.98  0.037999  ( 0.093025  0.000764  0.171302)
 56:   1652.26   0.038485  194.49  0.007269  ( 0.020706 -0.038890  0.072990)
 57:   3030.68   0.004049   20.46  0.000417  ( 0.003175  0.020158  0.000688)
 58:   3046.55   0.004017   20.30  0.000411  (-0.006978  0.018429  0.004813)
 59:   3050.72   0.001733    8.76  0.000177  ( 0.003436  0.005380  0.011683)
 60:   3090.51   0.007887   39.86  0.000796  ( 0.022597 -0.015627 -0.006445)
 61:   3114.14   0.016784   84.82  0.001682  (-0.013125  0.028947 -0.025919)
 62:   3115.34   0.005825   29.44  0.000584  (-0.007060 -0.015316 -0.017295)
 63:   3119.47   0.008329   42.09  0.000833  ( 0.012236  0.023457 -0.011543)
 64:   3121.86   0.007701   38.92  0.000770  (-0.018578 -0.019731 -0.005945)
 65:   3127.64   0.002051   10.36  0.000205  (-0.000042  0.014080 -0.002525)
 66:   3136.34   0.299229  1512.18  0.029773  ( 0.043481 -0.166918 -0.004579)
 67:   3152.58   0.028047  141.74  0.002776  ( 0.011305 -0.051280 -0.004346)
 68:   3806.28   0.010565   53.39  0.000866  (-0.001387  0.018023  0.023225)

--------------------------
THERMOCHEMISTRY AT 298.15K
--------------------------

Temperature         ... 298.15 K
Pressure            ... 1.00 atm
Total Mass          ... 166.15 AMU

Throughout the following assumptions are being made:
  (1) The electronic state is orbitally nondegenerate
  (2) There are no thermally accessible electronically excited states
  (3) Hindered rotations indicated by low frequency modes are not
      treated as such but are treated as vibrations and this may
      cause some error
  (4) All equations used are the standard statistical mechanics
      equations for an ideal gas
  (5) All vibrations are strictly harmonic

freq.      15.35  E(vib)   ...       0.57
freq.      35.10  E(vib)   ...       0.54
freq.      45.46  E(vib)   ...       0.53
freq.      54.56  E(vib)   ...       0.52
freq.      69.25  E(vib)   ...       0.50
freq.      80.03  E(vib)   ...       0.49
freq.      87.97  E(vib)   ...       0.48
freq.     100.92  E(vib)   ...       0.46
freq.     145.27  E(vib)   ...       0.41
freq.     215.93  E(vib)   ...       0.34
freq.     223.12  E(vib)   ...       0.33
freq.     245.93  E(vib)   ...       0.31
freq.     264.53  E(vib)   ...       0.29
freq.     301.35  E(vib)   ...       0.26
freq.     340.24  E(vib)   ...       0.23
freq.     467.68  E(vib)   ...       0.16
freq.     498.59  E(vib)   ...       0.14
freq.     525.03  E(vib)   ...       0.13
freq.     612.50  E(vib)   ...       0.10
freq.     631.09  E(vib)   ...       0.09
freq.     656.38  E(vib)   ...       0.08
freq.     753.23  E(vib)   ...       0.06
freq.     828.02  E(vib)   ...       0.04
freq.     864.49  E(vib)   ...       0.04
freq.     905.69  E(vib)   ...       0.03
freq.     912.54  E(vib)   ...       0.03
freq.     956.30  E(vib)   ...       0.03
freq.     964.55  E(vib)   ...       0.03
freq.    1023.44  E(vib)   ...       0.02
freq.    1056.68  E(vib)   ...       0.02
freq.    1115.05  E(vib)   ...       0.01
freq.    1151.82  E(vib)   ...       0.01
freq.    1197.67  E(vib)   ...       0.01
freq.    1339.35  E(vib)   ...       0.01
freq.    1355.97  E(vib)   ...       0.01
freq.    1367.29  E(vib)   ...       0.01
freq.    1389.30  E(vib)   ...       0.00
freq.    1395.62  E(vib)   ...       0.00
freq.    1398.11  E(vib)   ...       0.00
freq.    1436.38  E(vib)   ...       0.00
freq.    1450.94  E(vib)   ...       0.00
freq.    1468.62  E(vib)   ...       0.00
freq.    1470.65  E(vib)   ...       0.00
freq.    1473.50  E(vib)   ...       0.00
freq.    1479.04  E(vib)   ...       0.00
freq.    1491.31  E(vib)   ...       0.00
freq.    1560.71  E(vib)   ...       0.00
freq.    1573.05  E(vib)   ...       0.00
freq.    1652.26  E(vib)   ...       0.00
freq.    3030.68  E(vib)   ...       0.00
freq.    3046.55  E(vib)   ...       0.00
freq.    3050.72  E(vib)   ...       0.00
freq.    3090.51  E(vib)   ...       0.00
freq.    3114.14  E(vib)   ...       0.00
freq.    3115.34  E(vib)   ...       0.00
freq.    3119.47  E(vib)   ...       0.00
freq.    3121.86  E(vib)   ...       0.00
freq.    3127.64  E(vib)   ...       0.00
freq.    3136.34  E(vib)   ...       0.00
freq.    3152.58  E(vib)   ...       0.00
freq.    3806.28  E(vib)   ...       0.00

------------
INNER ENERGY
------------

The inner energy is: U= E(el) + E(ZPE) + E(vib) + E(rot) + E(trans)
    E(el)   - is the total energy from the electronic structure calculation
              = E(kin-el) + E(nuc-el) + E(el-el) + E(nuc-nuc)
    E(ZPE)  - the the zero temperature vibrational energy from the frequency calculation
    E(vib)  - the the finite temperature correction to E(ZPE) due to population
              of excited vibrational states
    E(rot)  - is the rotational thermal energy
    E(trans)- is the translational thermal energy

Summary of contributions to the inner energy U:
Electronic energy                ...   -628.70701676 Eh
Zero point energy                ...      0.17897279 Eh     112.31 kcal/mol
Thermal vibrational correction   ...      0.01171606 Eh       7.35 kcal/mol
Thermal rotational correction    ...      0.00141627 Eh       0.89 kcal/mol
Thermal translational correction ...      0.00141627 Eh       0.89 kcal/mol
-----------------------------------------------------------------------
Total thermal energy                   -628.51349538 Eh

Summary of corrections to the electronic energy:
(perhaps to be used in another calculation)
Total thermal correction                  0.01454860 Eh       9.13 kcal/mol
Non-thermal (ZPE) correction              0.17897279 Eh     112.31 kcal/mol
-----------------------------------------------------------------------
Total correction                          0.19352139 Eh     121.44 kcal/mol

--------
ENTHALPY
--------

The enthalpy is H = U + kB*T
                kB is Boltzmann's constant
Total free energy                 ...   -628.51349538 Eh
Thermal Enthalpy correction       ...      0.00094421 Eh       0.59 kcal/mol
-----------------------------------------------------------------------
Total Enthalpy                    ...   -628.51255117 Eh

Note: Only C1 symmetry has been detected, increase convergence thresholds
      if your molecule has a higher symmetry. Symmetry factor of 1.0 is
      used for the rotational entropy correction.

Note: Rotational entropy computed according to Herzberg
Infrared and Raman Spectra, Chapter V,1, Van Nostrand Reinhold, 1945
Point Group:  C1, Symmetry Number:   1
Rotational constants in cm-1:     0.038076     0.020472     0.017208

Vibrational entropy computed according to the QRRHO of S. Grimme
Chem.Eur.J. 2012 18 9955

-------
ENTROPY
-------

The entropy contributions are T*S = T*(S(el)+S(vib)+S(rot)+S(trans))
     S(el)   - electronic entropy
     S(vib)  - vibrational entropy
     S(rot)  - rotational entropy
     S(trans)- translational entropy
The entropies will be listed as multiplied by the temperature to get
units of energy

Electronic entropy                ...      0.00000000 Eh      0.00 kcal/mol
Vibrational entropy               ...      0.02208645 Eh     13.86 kcal/mol
Rotational entropy                ...      0.01480729 Eh      9.29 kcal/mol
Translational entropy             ...      0.01959034 Eh     12.29 kcal/mol
-----------------------------------------------------------------------
Final entropy term                ...      0.05648408 Eh     35.44 kcal/mol

In case the symmetry of your molecule has not been determined correctly
or in case you have a reason to use a different symmetry number we print
out the resulting rotational entropy values for sn=1,12 :
 --------------------------------------------------------
|  sn= 1 | S(rot)=       0.01480729 Eh      9.29 kcal/mol|
|  sn= 2 | S(rot)=       0.01415283 Eh      8.88 kcal/mol|

                             ****ORCA TERMINATED NORMALLY****
TOTAL RUN TIME: 0 days 0 hours 14 minutes 3 seconds 883 msec
