                         Program Version 5.0.4 -  RELEASE  -
|  1> !  NUMFREQ B3LYP def2-TZVP CPCM D3
|  2> %pal nprocs 102 end
|  3> %cpcm epsilon 78.4 end
|  4> *xyz -1 1
|  5> C   -0.58031995055066 2.78502002539336 -0.1735063866235
|  6> C   0.03604379322727 1.55181130034571 -0.36019824187227
|  7> C   -0.68660563109875 0.37365498921093 -0.19403388610529
|  8> C   -2.03347460527598 0.43644549602748 0.16368660039888
|  9> C   -2.63250491868863 1.67366598823753 0.33330378700767
| 10> C   -1.92360021242001 2.8578322268908 0.17244699344441
| 11> H   -0.01468028219396 3.69902644533268 -0.30081388705913
| 12> H   1.08229367632547 1.48931593083065 -0.63173005000585
| 13> H   -2.61215439659334 -0.46789518505656 0.29809103088693
| 14> Cl   -4.33127500783231 1.7475318731162 0.76284398253186
| 15> H   -2.41277769681251 3.81152508332249 0.31418286513268
| 16> C   0.01726498196786 -0.94856374045289 -0.34537674328748
| 17> C   0.09609846164385 -1.75503097327983 0.94029148315403
| 18> H   0.70815769442891 -2.64426094310856 0.80828600682743
| 19> H   -0.89315574423096 -2.04782513091192 1.29531957329351
| 20> H   0.56247366309746 -1.12590148276632 1.6986949906537
| 21> N   -0.60376822859194 -1.76380931745943 -1.46282754145041
| 22> O   -0.48762282269501 -2.98058165352921 -1.4249769582255
| 23> O   -1.12830627984254 -1.16834269409892 -2.39494480437598
| 24> H   1.05119344028915 -0.76686738913618 -0.72401623269477
| 25> O   3.9090338662234 -1.26185078172345 1.32729397086647
| 26> H   3.16325924393884 -1.41455113096779 1.91589686050692
| 27> H   3.49438669750897 -0.92689889219987 0.42832503072502
| 28> H   3.34576193033142 -0.73092316038341 -1.61413838934859
| 29> O   2.87427832784399 -0.42252688363352 -0.83210005438079
| 30> *
| 31>
| 32>                          ****END OF INPUT****

CARTESIAN COORDINATES (ANGSTROEM)
---------------------------------
  C     -0.580320    2.785020   -0.173506
  C      0.036044    1.551811   -0.360198
  C     -0.686606    0.373655   -0.194034
  C     -2.033475    0.436445    0.163687
  C     -2.632505    1.673666    0.333304
  C     -1.923600    2.857832    0.172447
  H     -0.014680    3.699026   -0.300814
  H      1.082294    1.489316   -0.631730
  H     -2.612154   -0.467895    0.298091
  Cl    -4.331275    1.747532    0.762844
  H     -2.412778    3.811525    0.314183
  C      0.017265   -0.948564   -0.345377
  C      0.096098   -1.755031    0.940291
  H      0.708158   -2.644261    0.808286
  H     -0.893156   -2.047825    1.295320
  H      0.562474   -1.125901    1.698695
  N     -0.603768   -1.763809   -1.462828
  O     -0.487623   -2.980582   -1.424977
  O     -1.128306   -1.168343   -2.394945
  H      1.051193   -0.766867   -0.724016
  O      3.909034   -1.261851    1.327294
  H      3.163259   -1.414551    1.915897
  H      3.494387   -0.926899    0.428325
  H      3.345762   -0.730923   -1.614138
  O      2.874278   -0.422527   -0.832100

 Total Charge           Charge          ....   -1
 Multiplicity           Mult            ....    1
 Number of Electrons    NEL             ....  116
 Basis Dimension        Dim             ....  506

ORBITAL ENERGIES
----------------

  NO   OCC          E(Eh)            E(eV)
   0   2.0000    -101.527448     -2762.7023
   1   2.0000     -19.161302      -521.4055
   2   2.0000     -19.160262      -521.3772
   3   2.0000     -19.066237      -518.8187
   4   2.0000     -19.016575      -517.4673
   5   2.0000     -14.544073      -395.7643
   6   2.0000     -10.236600      -278.5520
   7   2.0000     -10.216180      -277.9964
   8   2.0000     -10.192665      -277.3565
   9   2.0000     -10.184359      -277.1305
  10   2.0000     -10.183715      -277.1130
  11   2.0000     -10.180818      -277.0341
  12   2.0000     -10.174738      -276.8687
  13   2.0000     -10.163472      -276.5621
  14   2.0000      -9.459606      -257.4090
  15   2.0000      -7.220898      -196.4906
  16   2.0000      -7.212807      -196.2705
  17   2.0000      -7.212489      -196.2618
  18   2.0000      -1.230706       -33.4892
  19   2.0000      -1.056476       -28.7482
  20   2.0000      -0.945809       -25.7368
  21   2.0000      -0.895993       -24.3812
  22   2.0000      -0.863985       -23.5102
  23   2.0000      -0.852673       -23.2024
  24   2.0000      -0.817503       -22.2454
  25   2.0000      -0.751043       -20.4369
  26   2.0000      -0.734735       -19.9932
  27   2.0000      -0.695188       -18.9170
  28   2.0000      -0.631285       -17.1781
  29   2.0000      -0.606414       -16.5014
  30   2.0000      -0.579192       -15.7606
  31   2.0000      -0.544541       -14.8177
  32   2.0000      -0.536647       -14.6029
  33   2.0000      -0.520764       -14.1707
  34   2.0000      -0.502904       -13.6847
  35   2.0000      -0.476730       -12.9725
  36   2.0000      -0.473133       -12.8746
  37   2.0000      -0.456165       -12.4129
  38   2.0000      -0.437315       -11.9000
  39   2.0000      -0.428926       -11.6717
  40   2.0000      -0.413359       -11.2481
  41   2.0000      -0.400404       -10.8956
  42   2.0000      -0.394220       -10.7273
  43   2.0000      -0.377940       -10.2843
  44   2.0000      -0.372031       -10.1235
  45   2.0000      -0.358612        -9.7583
  46   2.0000      -0.354814        -9.6550
  47   2.0000      -0.336906        -9.1677
  48   2.0000      -0.325653        -8.8615
  49   2.0000      -0.323051        -8.7907
  50   2.0000      -0.317160        -8.6304
  51   2.0000      -0.309764        -8.4291
  52   2.0000      -0.301209        -8.1963
  53   2.0000      -0.271959        -7.4004
  54   2.0000      -0.262341        -7.1387
  55   2.0000      -0.251237        -6.8365
  56   2.0000      -0.221639        -6.0311
  57   2.0000      -0.219044        -5.9605
  58   0.0000      -0.071109        -1.9350
  59   0.0000      -0.027089        -0.7371
  60   0.0000      -0.020289        -0.5521
  61   0.0000       0.023992         0.6529
  62   0.0000       0.041422         1.1272

MULLIKEN ATOMIC CHARGES
-----------------------
   0 C :   -0.113292
   1 C :   -0.161272
   2 C :    0.125562
   3 C :   -0.320005
   4 C :    0.222195
   5 C :   -0.216418
   6 H :    0.147616
   7 H :    0.101825
   8 H :    0.148710
   9 Cl:   -0.142989
  10 H :    0.148865
  11 C :    0.131418
  12 C :   -0.390947
  13 H :    0.130263
  14 H :    0.135804
  15 H :    0.134341
  16 N :    0.413616
  17 O :   -0.358844
  18 O :   -0.362687
  19 H :    0.061914
  20 O :   -0.814683
  21 H :    0.319474
  22 H :    0.349003
  23 H :    0.280338
  24 O :   -0.969808
Sum of atomic charges:   -1.0000000

LOEWDIN ATOMIC CHARGES
----------------------
   0 C :   -0.128662
   1 C :   -0.104552
   2 C :   -0.133270
   3 C :   -0.107867
   4 C :   -0.414734
   5 C :   -0.143417
   6 H :    0.153688
   7 H :    0.147823
   8 H :    0.158706
   9 Cl:    0.354740
  10 H :    0.153349
  11 C :   -0.223360
  12 C :   -0.274061
  13 H :    0.124310
  14 H :    0.127909
  15 H :    0.135209
  16 N :   -0.030259
  17 O :   -0.060077
  18 O :   -0.061958
  19 H :    0.174382
  20 O :   -0.465523
  21 H :    0.133306
  22 H :    0.113039
  23 H :    0.091948
  24 O :   -0.720668

  Mayer bond orders larger than 0.100000
B(  0-C ,  1-C ) :   1.3977 B(  0-C ,  5-C ) :   1.3853 B(  0-C ,  6-H ) :   0.9751
B(  1-C ,  2-C ) :   1.3661 B(  1-C ,  7-H ) :   0.9412 B(  2-C ,  3-C ) :   1.3282
B(  2-C , 11-C ) :   0.8578 B(  3-C ,  4-C ) :   1.3789 B(  3-C ,  8-H ) :   0.9790
B(  4-C ,  5-C ) :   1.3342 B(  4-C ,  9-Cl) :   0.9132 B(  5-C , 10-H ) :   0.9742
B(  7-H , 24-O ) :   0.1442 B( 11-C , 12-C ) :   0.9231 B( 11-C , 16-N ) :   0.8464
B( 11-C , 19-H ) :   0.7905 B( 11-C , 24-O ) :  -0.2537 B( 12-C , 13-H ) :   0.9667
B( 12-C , 14-H ) :   0.9626 B( 12-C , 15-H ) :   0.9702 B( 16-N , 17-O ) :   1.6115
B( 16-N , 18-O ) :   1.6134 B( 17-O , 18-O ) :   0.1921 B( 19-H , 24-O ) :   0.3855
B( 20-O , 21-H ) :   0.9100 B( 20-O , 22-H ) :   0.6787 B( 22-H , 24-O ) :   0.3035
B( 23-H , 24-O ) :   0.9212

Dispersion correction           -0.046943676
FINAL SINGLE POINT ENERGY     -1127.293054501817
Dispersion correction            ... done

DIPOLE MOMENT
-------------
                                X             Y             Z
Electronic contribution:    -25.02065       6.80495      -2.62629
Nuclear contribution   :     19.63601      -4.58588       3.69445
                        -----------------------------------------
Total Dipole Moment    :     -5.38464       2.21907       1.06816
                        -----------------------------------------
Magnitude (a.u.)       :      5.92111
Magnitude (Debye)      :     15.05027

VIBRATIONAL FREQUENCIES
-----------------------

Scaling factor for frequencies =  1.000000000 (already applied!)

   0:         0.00 cm**-1
   1:         0.00 cm**-1
   2:         0.00 cm**-1
   3:         0.00 cm**-1
   4:         0.00 cm**-1
   5:         0.00 cm**-1
   6:      -109.06 cm**-1 ***imaginary mode***
   7:       -46.69 cm**-1 ***imaginary mode***
   8:       -18.87 cm**-1 ***imaginary mode***
   9:        26.92 cm**-1
  10:        37.16 cm**-1
  11:        53.93 cm**-1
  12:        57.84 cm**-1
  13:        89.54 cm**-1
  14:       123.37 cm**-1
  15:       146.67 cm**-1
  16:       147.71 cm**-1
  17:       195.25 cm**-1
  18:       234.21 cm**-1
  19:       261.97 cm**-1
  20:       312.28 cm**-1
  21:       319.43 cm**-1
  22:       324.54 cm**-1
  23:       376.06 cm**-1
  24:       386.42 cm**-1
  25:       409.51 cm**-1
  26:       449.57 cm**-1
  27:       481.70 cm**-1
  28:       560.18 cm**-1
  29:       610.13 cm**-1
  30:       624.62 cm**-1
  31:       632.00 cm**-1
  32:       702.37 cm**-1
  33:       717.15 cm**-1
  34:       769.98 cm**-1
  35:       812.31 cm**-1
  36:       853.89 cm**-1
  37:       887.55 cm**-1
  38:       915.07 cm**-1
  39:       945.88 cm**-1
  40:      1016.29 cm**-1
  41:      1020.46 cm**-1
  42:      1033.48 cm**-1
  43:      1062.32 cm**-1
  44:      1085.16 cm**-1
  45:      1099.31 cm**-1
  46:      1103.05 cm**-1
  47:      1133.09 cm**-1
  48:      1187.65 cm**-1
  49:      1248.94 cm**-1
  50:      1294.52 cm**-1
  51:      1341.31 cm**-1
  52:      1368.55 cm**-1
  53:      1394.12 cm**-1
  54:      1408.25 cm**-1
  55:      1425.18 cm**-1
  56:      1473.69 cm**-1
  57:      1480.17 cm**-1
  58:      1486.70 cm**-1
  59:      1510.96 cm**-1
  60:      1535.19 cm**-1
  61:      1610.90 cm**-1
  62:      1637.24 cm**-1
  63:      1677.09 cm**-1
  64:      2244.81 cm**-1
  65:      2698.65 cm**-1
  66:      3048.46 cm**-1
  67:      3114.04 cm**-1
  68:      3135.86 cm**-1
  69:      3177.36 cm**-1
  70:      3188.81 cm**-1
  71:      3192.77 cm**-1
  72:      3204.76 cm**-1
  73:      3785.77 cm**-1
  74:      3829.83 cm**-1

IR SPECTRUM
-----------

 Mode   freq       eps      Int      T**2         TX        TY        TZ
       cm**-1   L/(mol*cm) km/mol    a.u.
----------------------------------------------------------------------------
  9:     26.92   0.001917    9.69  0.022227  (-0.018151 -0.129736  0.071175)
 10:     37.16   0.000352    1.78  0.002953  (-0.007332 -0.050622  0.018335)
 11:     53.93   0.002842   14.36  0.016447  ( 0.049208 -0.071853 -0.094144)
 12:     57.84   0.001730    8.74  0.009333  (-0.041664 -0.085560  0.016621)
 13:     89.54   0.000624    3.15  0.002176  (-0.000234  0.044153  0.015032)
 14:    123.37   0.016681   84.30  0.042194  (-0.117586 -0.167297  0.019477)
 15:    146.67   0.018001   90.97  0.038299  ( 0.195235  0.010471  0.008501)
 16:    147.71   0.002172   10.98  0.004589  ( 0.062289  0.026638  0.000187)
 17:    195.25   0.000157    0.79  0.000250  (-0.004540 -0.015154  0.000227)
 18:    234.21   0.000177    0.90  0.000236  ( 0.003328 -0.006071  0.013729)
 19:    261.97   0.001109    5.60  0.001321  (-0.021999  0.028894 -0.001531)
 20:    312.28   0.000705    3.56  0.000704  (-0.026142  0.003628  0.002779)
 21:    319.43   0.010945   55.31  0.010692  (-0.064483  0.031734 -0.074345)
 22:    324.54   0.012730   64.33  0.012240  (-0.026848  0.031528 -0.102592)
 23:    376.06   0.004165   21.05  0.003456  ( 0.027756 -0.007053  0.051343)
 24:    386.42   0.040259  203.45  0.032511  ( 0.080670 -0.059581  0.149846)
 25:    409.51   0.005337   26.97  0.004067  ( 0.060804 -0.002048 -0.019129)
 26:    449.57   0.000863    4.36  0.000599  (-0.013996  0.003474 -0.019773)
 27:    481.70   0.003564   18.01  0.002309  (-0.022786  0.000838  0.042298)
 28:    560.18   0.004279   21.63  0.002384  ( 0.046705  0.006595  0.012612)
 29:    610.13   0.003014   15.23  0.001541  ( 0.031299 -0.023478  0.003242)
 30:    624.62   0.011877   60.02  0.005934  (-0.013846 -0.022221  0.072444)
 31:    632.00   0.001261    6.37  0.000623  (-0.008705 -0.022198 -0.007352)
 32:    702.37   0.008439   42.65  0.003750  ( 0.049604 -0.025019 -0.025752)
 33:    717.15   0.007764   39.24  0.003379  ( 0.020496 -0.007089  0.053929)
 34:    769.98   0.006596   33.33  0.002673  (-0.025619  0.002428 -0.044843)
 35:    812.31   0.006819   34.46  0.002620  (-0.002688 -0.000392 -0.051111)
 36:    853.89   0.007917   40.01  0.002893  (-0.052133 -0.012411 -0.004649)
 37:    887.55   0.008195   41.41  0.002881  ( 0.009805  0.032746  0.041387)
 38:    915.07   0.003832   19.37  0.001307  (-0.006151 -0.002492 -0.035535)
 39:    945.88   0.000015    0.08  0.000005  ( 0.001135 -0.001942  0.000151)
 40:   1016.29   0.000235    1.19  0.000072  ( 0.005688 -0.003283  0.005382)
 41:   1020.46   0.001009    5.10  0.000308  ( 0.016144  0.000211 -0.006913)
 42:   1033.48   0.000655    3.31  0.000198  (-0.010228  0.005660 -0.007821)
 43:   1062.32   0.021093  106.59  0.006196  (-0.009145 -0.072453 -0.029376)
 44:   1085.16   0.007630   38.56  0.002194  ( 0.014759  0.044454 -0.000297)
 45:   1099.31   0.003314   16.75  0.000941  ( 0.027177  0.007037 -0.012355)
 46:   1103.05   0.004876   24.64  0.001380  (-0.036412  0.002788  0.006778)
 47:   1133.09   0.003731   18.86  0.001028  ( 0.028532 -0.002607 -0.014381)
 48:   1187.65   0.000080    0.40  0.000021  ( 0.003936 -0.002115 -0.000980)
 49:   1248.94   0.018000   90.97  0.004498  ( 0.059716 -0.030203  0.004403)
 50:   1294.52   0.001767    8.93  0.000426  (-0.007704  0.018346  0.005479)
 51:   1341.31   0.000045    0.23  0.000010  ( 0.001604  0.002754  0.000510)
 52:   1368.55   0.052755  266.60  0.012029  ( 0.069400  0.060762  0.059339)
 53:   1394.12   0.002792   14.11  0.000625  ( 0.018944 -0.007555  0.014455)
 54:   1408.25   0.009308   47.04  0.002063  ( 0.035424 -0.006524  0.027661)
 55:   1425.18   0.019616   99.13  0.004295  (-0.011676  0.034049  0.054767)
 56:   1473.69   0.004961   25.07  0.001051  (-0.029213 -0.009021 -0.010759)
 57:   1480.17   0.003122   15.78  0.000658  ( 0.025508  0.001095  0.002514)
 58:   1486.70   0.003181   16.08  0.000668  (-0.017540  0.017860 -0.006413)
 59:   1510.96   0.008835   44.65  0.001825  (-0.041099  0.008521  0.007931)
 60:   1535.19   0.136526  689.94  0.027752  (-0.043649  0.145599 -0.068173)
 61:   1610.90   0.010032   50.70  0.001943  (-0.043096  0.000447  0.009270)
 62:   1637.24   0.004264   21.55  0.000813  (-0.017810  0.022169  0.002022)
 63:   1677.09   0.015336   77.50  0.002854  ( 0.052733 -0.008303 -0.001968)
 64:   2244.81   0.666067  3366.03  0.092594  ( 0.144755 -0.082819  0.254520)
 65:   2698.65   0.214498  1083.98  0.024804  ( 0.149454  0.044731 -0.021602)
 66:   3048.46   0.003083   15.58  0.000316  (-0.000327  0.006585 -0.016498)
 67:   3114.04   0.003423   17.30  0.000343  (-0.015534 -0.009434 -0.003560)
 68:   3135.86   0.004367   22.07  0.000435  (-0.011825  0.016476  0.004825)
 69:   3177.36   0.001204    6.08  0.000118  ( 0.010460  0.002178 -0.002012)
 70:   3188.81   0.001279    6.46  0.000125  ( 0.001179  0.011115 -0.000499)
 71:   3192.77   0.000018    0.09  0.000002  (-0.000480 -0.001165  0.000409)
 72:   3204.76   0.000728    3.68  0.000071  ( 0.000420 -0.008407  0.000008)
 73:   3785.77   0.000046    0.23  0.000004  ( 0.000608 -0.001401 -0.001225)
 74:   3829.83   0.005046   25.50  0.000411  (-0.011120 -0.004665  0.016302)

--------------------------
THERMOCHEMISTRY AT 298.15K
--------------------------

Temperature         ... 298.15 K
Pressure            ... 1.00 atm
Total Mass          ... 220.63 AMU

Throughout the following assumptions are being made:
  (1) The electronic state is orbitally nondegenerate
  (2) There are no thermally accessible electronically excited states
  (3) Hindered rotations indicated by low frequency modes are not
      treated as such but are treated as vibrations and this may
      cause some error
  (4) All equations used are the standard statistical mechanics
      equations for an ideal gas
  (5) All vibrations are strictly harmonic

freq.      26.92  E(vib)   ...       0.55
freq.      37.16  E(vib)   ...       0.54
freq.      53.93  E(vib)   ...       0.52
freq.      57.84  E(vib)   ...       0.51
freq.      89.54  E(vib)   ...       0.47
freq.     123.37  E(vib)   ...       0.43
freq.     146.67  E(vib)   ...       0.41
freq.     147.71  E(vib)   ...       0.41
freq.     195.25  E(vib)   ...       0.36
freq.     234.21  E(vib)   ...       0.32
freq.     261.97  E(vib)   ...       0.29
freq.     312.28  E(vib)   ...       0.25
freq.     319.43  E(vib)   ...       0.25
freq.     324.54  E(vib)   ...       0.24
freq.     376.06  E(vib)   ...       0.21
freq.     386.42  E(vib)   ...       0.20
freq.     409.51  E(vib)   ...       0.19
freq.     449.57  E(vib)   ...       0.17
freq.     481.70  E(vib)   ...       0.15
freq.     560.18  E(vib)   ...       0.12
freq.     610.13  E(vib)   ...       0.10
freq.     624.62  E(vib)   ...       0.09
freq.     632.00  E(vib)   ...       0.09
freq.     702.37  E(vib)   ...       0.07
freq.     717.15  E(vib)   ...       0.07
freq.     769.98  E(vib)   ...       0.05
freq.     812.31  E(vib)   ...       0.05
freq.     853.89  E(vib)   ...       0.04
freq.     887.55  E(vib)   ...       0.04
freq.     915.07  E(vib)   ...       0.03
freq.     945.88  E(vib)   ...       0.03
freq.    1016.29  E(vib)   ...       0.02
freq.    1020.46  E(vib)   ...       0.02
freq.    1033.48  E(vib)   ...       0.02
freq.    1062.32  E(vib)   ...       0.02
freq.    1085.16  E(vib)   ...       0.02
freq.    1099.31  E(vib)   ...       0.02
freq.    1103.05  E(vib)   ...       0.02
freq.    1133.09  E(vib)   ...       0.01
freq.    1187.65  E(vib)   ...       0.01
freq.    1248.94  E(vib)   ...       0.01
freq.    1294.52  E(vib)   ...       0.01
freq.    1341.31  E(vib)   ...       0.01
freq.    1368.55  E(vib)   ...       0.01
freq.    1394.12  E(vib)   ...       0.00
freq.    1408.25  E(vib)   ...       0.00
freq.    1425.18  E(vib)   ...       0.00
freq.    1473.69  E(vib)   ...       0.00
freq.    1480.17  E(vib)   ...       0.00
freq.    1486.70  E(vib)   ...       0.00
freq.    1510.96  E(vib)   ...       0.00
freq.    1535.19  E(vib)   ...       0.00
freq.    1610.90  E(vib)   ...       0.00
freq.    1637.24  E(vib)   ...       0.00
freq.    1677.09  E(vib)   ...       0.00
freq.    2244.81  E(vib)   ...       0.00
freq.    2698.65  E(vib)   ...       0.00
freq.    3048.46  E(vib)   ...       0.00
freq.    3114.04  E(vib)   ...       0.00
freq.    3135.86  E(vib)   ...       0.00
freq.    3177.36  E(vib)   ...       0.00
freq.    3188.81  E(vib)   ...       0.00
freq.    3192.77  E(vib)   ...       0.00
freq.    3204.76  E(vib)   ...       0.00
freq.    3785.77  E(vib)   ...       0.00
freq.    3829.83  E(vib)   ...       0.00

------------
INNER ENERGY
------------

The inner energy is: U= E(el) + E(ZPE) + E(vib) + E(rot) + E(trans)
    E(el)   - is the total energy from the electronic structure calculation
              = E(kin-el) + E(nuc-el) + E(el-el) + E(nuc-nuc)
    E(ZPE)  - the the zero temperature vibrational energy from the frequency calculation
    E(vib)  - the the finite temperature correction to E(ZPE) due to population
              of excited vibrational states
    E(rot)  - is the rotational thermal energy
    E(trans)- is the translational thermal energy

Summary of contributions to the inner energy U:
Electronic energy                ...  -1127.29305450 Eh
Zero point energy                ...      0.18161547 Eh     113.97 kcal/mol
Thermal vibrational correction   ...      0.01190018 Eh       7.47 kcal/mol
Thermal rotational correction    ...      0.00141627 Eh       0.89 kcal/mol
Thermal translational correction ...      0.00141627 Eh       0.89 kcal/mol
-----------------------------------------------------------------------
Total thermal energy                  -1127.09670631 Eh

Summary of corrections to the electronic energy:
(perhaps to be used in another calculation)
Total thermal correction                  0.01473272 Eh       9.24 kcal/mol
Non-thermal (ZPE) correction              0.18161547 Eh     113.97 kcal/mol
-----------------------------------------------------------------------
Total correction                          0.19634819 Eh     123.21 kcal/mol

--------
ENTHALPY
--------

The enthalpy is H = U + kB*T
                kB is Boltzmann's constant
Total free energy                 ...  -1127.09670631 Eh
Thermal Enthalpy correction       ...      0.00094421 Eh       0.59 kcal/mol
-----------------------------------------------------------------------
Total Enthalpy                    ...  -1127.09576210 Eh

Note: Only C1 symmetry has been detected, increase convergence thresholds
      if your molecule has a higher symmetry. Symmetry factor of 1.0 is
      used for the rotational entropy correction.

Note: Rotational entropy computed according to Herzberg
Infrared and Raman Spectra, Chapter V,1, Van Nostrand Reinhold, 1945
Point Group:  C1, Symmetry Number:   1
Rotational constants in cm-1:     0.026162     0.010210     0.008691

Vibrational entropy computed according to the QRRHO of S. Grimme
Chem.Eur.J. 2012 18 9955

-------
ENTROPY
-------

The entropy contributions are T*S = T*(S(el)+S(vib)+S(rot)+S(trans))
     S(el)   - electronic entropy
     S(vib)  - vibrational entropy
     S(rot)  - rotational entropy
     S(trans)- translational entropy
The entropies will be listed as multiplied by the temperature to get
units of energy

Electronic entropy                ...      0.00000000 Eh      0.00 kcal/mol
Vibrational entropy               ...      0.02136635 Eh     13.41 kcal/mol
Rotational entropy                ...      0.01563537 Eh      9.81 kcal/mol
Translational entropy             ...      0.01999197 Eh     12.55 kcal/mol
-----------------------------------------------------------------------
Final entropy term                ...      0.05699370 Eh     35.76 kcal/mol

In case the symmetry of your molecule has not been determined correctly

                             ****ORCA TERMINATED NORMALLY****
TOTAL RUN TIME: 0 days 0 hours 22 minutes 47 seconds 781 msec
