                         Program Version 5.0.4 -  RELEASE  -
|  1> !  NUMFREQ B3LYP def2-TZVP CPCM D3
|  2> %pal nprocs 102 end
|  3> %cpcm epsilon 78.4 end
|  4> *xyz 0 1
|  5> C   -0.63901199241088 2.85147915983486 0.27207846108369
|  6> C   0.44729962096301 2.28057689752499 0.92721097520638
|  7> C   0.28364102785821 1.1188231473501 1.67907668448609
|  8> C   -0.97663674880688 0.525754452424 1.76169852461797
|  9> C   -2.05948909447308 1.09151007010144 1.09972837649928
| 10> C   -1.89338129371403 2.25654708541198 0.35529474291861
| 11> H   -0.50431421241209 3.75821130444806 -0.30409046161553
| 12> H   1.42685033576022 2.73740777690726 0.86464129498854
| 13> H   -1.11458486905919 -0.37982359718175 2.33846822509773
| 14> H   -2.73933560822413 2.69773469214688 -0.15654959909522
| 15> C   1.47614254637986 0.52942069808816 2.39766149999128
| 16> C   1.27206193887023 0.2776655374116 3.87760150117555
| 17> H   2.16513931328884 -0.16194540395616 4.31982297380544
| 18> H   0.41904715681334 -0.37107152498074 4.0648302511465
| 19> H   1.08823122713729 1.24073090376115 4.35511262761654
| 20> N   1.8421884217717 -0.7748281355638 1.67317691960945
| 21> O   2.49513907691887 -0.67052674738267 0.64645574667467
| 22> O   1.45169325683698 -1.83501553470696 2.12977644424923
| 23> N   4.9703961884727 0.84551020919523 3.92145535708056
| 24> C   5.28798346917299 -0.46381792297093 3.35418243173314
| 25> C   5.65864389879521 -1.42528528814534 4.47322507458268
| 26> N   6.79573141620167 -0.88366835158129 5.22198010158493
| 27> C   6.47831194151766 0.42947454016153 5.78962113172971
| 28> C   6.10575130154079 1.38693680336026 4.66694523716903
| 29> H   5.82860375931462 2.35757593129555 5.08286037168927
| 30> H   6.98965821431268 1.53290072039844 4.02407512059928
| 31> H   7.35195691620036 0.80399503806386 6.32642746207987
| 32> H   5.63733482176073 0.37926809456829 6.50001742239461
| 33> H   5.93730540918799 -2.39499405570202 4.05632512676187
| 34> H   4.77541885469504 -1.57116399439447 5.11575183261018
| 35> H   6.12786615053827 -0.41340136632506 2.64153038838065
| 36> H   2.34577373211213 1.15703200386098 2.21996828669981 M = 2
| 37> H   4.69335633042141 1.49015444412686 3.18782979832429
| 38> H   4.41813250997001 -0.84258807015299 2.81698793889378
| 39> H   7.05269553068972 -1.52401211927071 5.96425919151619
| 40> H   4.45250479561428 3.11896103882582 1.00252268918175
| 41> H   3.58320497955707 3.72534979106588 2.10809698763335
| 42> O   3.92169727411019 2.88469529173601 1.77444167572577
| 43> H   -3.03366768768433 0.62388636024559 1.16637114517251
| 44> *
| 45>
| 46>                          ****END OF INPUT****

CARTESIAN COORDINATES (ANGSTROEM)
---------------------------------
  C     -0.639012    2.851479    0.272078
  C      0.447300    2.280577    0.927211
  C      0.283641    1.118823    1.679077
  C     -0.976637    0.525754    1.761699
  C     -2.059489    1.091510    1.099728
  C     -1.893381    2.256547    0.355295
  H     -0.504314    3.758211   -0.304090
  H      1.426850    2.737408    0.864641
  H     -1.114585   -0.379824    2.338468
  H     -2.739336    2.697735   -0.156550
  C      1.476143    0.529421    2.397661
  C      1.272062    0.277666    3.877602
  H      2.165139   -0.161945    4.319823
  H      0.419047   -0.371072    4.064830
  H      1.088231    1.240731    4.355113
  N      1.842188   -0.774828    1.673177
  O      2.495139   -0.670527    0.646456
  O      1.451693   -1.835016    2.129776
  N      4.970396    0.845510    3.921455
  C      5.287983   -0.463818    3.354182
  C      5.658644   -1.425285    4.473225
  N      6.795731   -0.883668    5.221980
  C      6.478312    0.429475    5.789621
  C      6.105751    1.386937    4.666945
  H      5.828604    2.357576    5.082860
  H      6.989658    1.532901    4.024075
  H      7.351957    0.803995    6.326427
  H      5.637335    0.379268    6.500017
  H      5.937305   -2.394994    4.056325
  H      4.775419   -1.571164    5.115752
  H      6.127866   -0.413401    2.641530
  H      2.345774    1.157032    2.219968
  H      4.693356    1.490154    3.187830
  H      4.418133   -0.842588    2.816988
  H      7.052696   -1.524012    5.964259
  H      4.452505    3.118961    1.002523
  H      3.583205    3.725350    2.108097
  O      3.921697    2.884695    1.774442
  H     -3.033668    0.623886    1.166371

 Total Charge           Charge          ....    0
 Multiplicity           Mult            ....    1
 Number of Electrons    NEL             ....  138
 Basis Dimension        Dim             ....  684

ORBITAL ENERGIES
----------------

  NO   OCC          E(Eh)            E(eV)
   0   2.0000     -19.171905      -521.6941
   1   2.0000     -19.169184      -521.6200
   2   2.0000     -19.131016      -520.5814
   3   2.0000     -14.551524      -395.9671
   4   2.0000     -14.293159      -388.9366
   5   2.0000     -14.286765      -388.7627
   6   2.0000     -10.233259      -278.4611
   7   2.0000     -10.192919      -277.3634
   8   2.0000     -10.180424      -277.0234
   9   2.0000     -10.180307      -277.0202
  10   2.0000     -10.179525      -276.9990
  11   2.0000     -10.179327      -276.9936
  12   2.0000     -10.179032      -276.9855
  13   2.0000     -10.177653      -276.9480
  14   2.0000     -10.177389      -276.9408
  15   2.0000     -10.176897      -276.9274
  16   2.0000     -10.176389      -276.9136
  17   2.0000     -10.166932      -276.6563
  18   2.0000      -1.240701       -33.7612
  19   2.0000      -1.067703       -29.0537
  20   2.0000      -1.014263       -27.5995
  21   2.0000      -0.922351       -25.0984
  22   2.0000      -0.875225       -23.8161
  23   2.0000      -0.867206       -23.5979
  24   2.0000      -0.829337       -22.5674
  25   2.0000      -0.752702       -20.4821
  26   2.0000      -0.751863       -20.4592
  27   2.0000      -0.743314       -20.2266
  28   2.0000      -0.699878       -19.0447
  29   2.0000      -0.665175       -18.1003
  30   2.0000      -0.626768       -17.0552
  31   2.0000      -0.623257       -16.9597
  32   2.0000      -0.613373       -16.6907
  33   2.0000      -0.584624       -15.9084
  34   2.0000      -0.550819       -14.9885
  35   2.0000      -0.546604       -14.8739
  36   2.0000      -0.543196       -14.7811
  37   2.0000      -0.531719       -14.4688
  38   2.0000      -0.528771       -14.3886
  39   2.0000      -0.518746       -14.1158
  40   2.0000      -0.506181       -13.7739
  41   2.0000      -0.472248       -12.8505
  42   2.0000      -0.465998       -12.6804
  43   2.0000      -0.453446       -12.3389
  44   2.0000      -0.449283       -12.2256
  45   2.0000      -0.437842       -11.9143
  46   2.0000      -0.432282       -11.7630
  47   2.0000      -0.424270       -11.5450
  48   2.0000      -0.420926       -11.4540
  49   2.0000      -0.410397       -11.1675
  50   2.0000      -0.402835       -10.9617
  51   2.0000      -0.401527       -10.9261
  52   2.0000      -0.397827       -10.8254
  53   2.0000      -0.380719       -10.3599
  54   2.0000      -0.375315       -10.2128
  55   2.0000      -0.373031       -10.1507
  56   2.0000      -0.350940        -9.5496
  57   2.0000      -0.347821        -9.4647
  58   2.0000      -0.341874        -9.3029
  59   2.0000      -0.331674        -9.0253
  60   2.0000      -0.328438        -8.9372
  61   2.0000      -0.325521        -8.8579
  62   2.0000      -0.318242        -8.6598
  63   2.0000      -0.313702        -8.5363
  64   2.0000      -0.308163        -8.3855
  65   2.0000      -0.263009        -7.1568
  66   2.0000      -0.260600        -7.0913
  67   2.0000      -0.229046        -6.2326
  68   2.0000      -0.223021        -6.0687
  69   0.0000      -0.080848        -2.2000
  70   0.0000      -0.022920        -0.6237
  71   0.0000      -0.016692        -0.4542
  72   0.0000       0.020814         0.5664
  73   0.0000       0.044518         1.2114

MULLIKEN ATOMIC CHARGES
-----------------------
   0 C :   -0.131584
   1 C :   -0.215785
   2 C :    0.146542
   3 C :   -0.220984
   4 C :   -0.130026
   5 C :   -0.144921
   6 H :    0.143977
   7 H :    0.125293
   8 H :    0.148653
   9 H :    0.144691
  10 C :    0.002684
  11 C :   -0.367811
  12 H :    0.141167
  13 H :    0.136873
  14 H :    0.136494
  15 N :    0.429255
  16 O :   -0.361227
  17 O :   -0.348781
  18 N :   -0.395561
  19 C :   -0.060742
  20 C :   -0.126720
  21 N :   -0.385513
  22 C :   -0.080565
  23 C :   -0.096133
  24 H :    0.106125
  25 H :    0.057288
  26 H :    0.107447
  27 H :    0.064692
  28 H :    0.107693
  29 H :    0.080194
  30 H :    0.067691
  31 H :    0.190799
  32 H :    0.226005
  33 H :    0.107977
  34 H :    0.214872
  35 H :    0.367117
  36 H :    0.368668
  37 O :   -0.700321
  38 H :    0.144477
Sum of atomic charges:    0.0000000

LOEWDIN ATOMIC CHARGES
----------------------
   0 C :   -0.136894
   1 C :   -0.106336
   2 C :   -0.137173
   3 C :   -0.102903
   4 C :   -0.136393
   5 C :   -0.136221
   6 H :    0.150759
   7 H :    0.150264
   8 H :    0.155053
   9 H :    0.150248
  10 C :   -0.209043
  11 C :   -0.268736
  12 H :    0.124929
  13 H :    0.127901
  14 H :    0.139242
  15 N :   -0.032585
  16 O :   -0.054570
  17 O :   -0.040025
  18 N :   -0.034188
  19 C :   -0.312276
  20 C :   -0.308567
  21 N :   -0.040213
  22 C :   -0.309056
  23 C :   -0.312027
  24 H :    0.129235
  25 H :    0.113208
  26 H :    0.128954
  27 H :    0.113583
  28 H :    0.129171
  29 H :    0.114632
  30 H :    0.115003
  31 H :    0.166413
  32 H :    0.157916
  33 H :    0.128585
  34 H :    0.169275
  35 H :    0.175708
  36 H :    0.175564
  37 O :   -0.289419
  38 H :    0.150980

  Mayer bond orders larger than 0.100000
B(  0-C ,  1-C ) :   1.4161 B(  0-C ,  5-C ) :   1.3893 B(  0-C ,  6-H ) :   0.9762
B(  1-C ,  2-C ) :   1.3549 B(  1-C ,  7-H ) :   0.9462 B(  2-C ,  3-C ) :   1.3351
B(  2-C , 10-C ) :   0.8762 B(  3-C ,  4-C ) :   1.4225 B(  3-C ,  8-H ) :   0.9655
B(  4-C ,  5-C ) :   1.3754 B(  4-C , 38-H ) :   0.9761 B(  5-C ,  9-H ) :   0.9721
B(  7-H , 37-O ) :   0.1003 B( 10-C , 11-C ) :   0.9537 B( 10-C , 15-N ) :   0.8185
B( 10-C , 31-H ) :   0.9680 B( 11-C , 12-H ) :   0.9739 B( 11-C , 13-H ) :   0.9474
B( 11-C , 14-H ) :   0.9631 B( 15-N , 16-O ) :   1.6002 B( 15-N , 17-O ) :   1.6092
B( 16-O , 17-O ) :   0.2116 B( 18-N , 19-C ) :   0.9423 B( 18-N , 23-C ) :   1.0071
B( 18-N , 32-H ) :   0.9145 B( 19-C , 20-C ) :   0.9886 B( 19-C , 30-H ) :   0.9500
B( 19-C , 33-H ) :   0.9650 B( 20-C , 21-N ) :   1.0064 B( 20-C , 28-H ) :   0.9607
B( 20-C , 29-H ) :   0.9780 B( 21-N , 22-C ) :   1.0017 B( 21-N , 34-H ) :   0.9254
B( 22-C , 23-C ) :   0.9987 B( 22-C , 26-H ) :   0.9618 B( 22-C , 27-H ) :   0.9642
B( 23-C , 24-H ) :   0.9622 B( 23-C , 25-H ) :   0.9553 B( 35-H , 37-O ) :   0.8726
B( 36-H , 37-O ) :   0.8707

Dispersion correction           -0.068428042
FINAL SINGLE POINT ENERGY      -859.676358988140
Dispersion correction            ... done

DIPOLE MOMENT
-------------
                                X             Y             Z
Electronic contribution:    -13.90547      -2.53587     -12.42063
Nuclear contribution   :     13.47251       5.16769      12.86448
                        -----------------------------------------
Total Dipole Moment    :     -0.43296       2.63182       0.44386
                        -----------------------------------------
Magnitude (a.u.)       :      2.70388
Magnitude (Debye)      :      6.87270

VIBRATIONAL FREQUENCIES
-----------------------

Scaling factor for frequencies =  1.000000000 (already applied!)

   0:         0.00 cm**-1
   1:         0.00 cm**-1
   2:         0.00 cm**-1
   3:         0.00 cm**-1
   4:         0.00 cm**-1
   5:         0.00 cm**-1
   6:       -59.46 cm**-1 ***imaginary mode***
   7:        10.32 cm**-1
   8:        19.84 cm**-1
   9:        26.83 cm**-1
  10:        31.54 cm**-1
  11:        43.35 cm**-1
  12:        45.30 cm**-1
  13:        50.78 cm**-1
  14:        52.27 cm**-1
  15:        66.84 cm**-1
  16:        72.26 cm**-1
  17:        98.48 cm**-1
  18:       113.03 cm**-1
  19:       121.17 cm**-1
  20:       171.82 cm**-1
  21:       203.87 cm**-1
  22:       215.95 cm**-1
  23:       249.94 cm**-1
  24:       271.15 cm**-1
  25:       278.53 cm**-1
  26:       297.75 cm**-1
  27:       356.89 cm**-1
  28:       418.49 cm**-1
  29:       419.41 cm**-1
  30:       465.74 cm**-1
  31:       466.45 cm**-1
  32:       472.89 cm**-1
  33:       512.66 cm**-1
  34:       577.75 cm**-1
  35:       587.02 cm**-1
  36:       626.17 cm**-1
  37:       647.23 cm**-1
  38:       715.51 cm**-1
  39:       738.01 cm**-1
  40:       778.98 cm**-1
  41:       795.32 cm**-1
  42:       812.96 cm**-1
  43:       832.72 cm**-1
  44:       854.00 cm**-1
  45:       862.93 cm**-1
  46:       864.74 cm**-1
  47:       865.36 cm**-1
  48:       883.64 cm**-1
  49:       896.02 cm**-1
  50:       950.52 cm**-1
  51:       958.95 cm**-1
  52:       970.63 cm**-1
  53:       993.25 cm**-1
  54:      1013.79 cm**-1
  55:      1023.05 cm**-1
  56:      1049.88 cm**-1
  57:      1064.60 cm**-1
  58:      1072.38 cm**-1
  59:      1093.08 cm**-1
  60:      1095.14 cm**-1
  61:      1115.59 cm**-1
  62:      1131.60 cm**-1
  63:      1132.66 cm**-1
  64:      1141.28 cm**-1
  65:      1141.99 cm**-1
  66:      1146.21 cm**-1
  67:      1177.80 cm**-1
  68:      1202.09 cm**-1
  69:      1207.14 cm**-1
  70:      1211.38 cm**-1
  71:      1265.75 cm**-1
  72:      1290.59 cm**-1
  73:      1317.82 cm**-1
  74:      1328.73 cm**-1
  75:      1338.08 cm**-1
  76:      1343.65 cm**-1
  77:      1364.99 cm**-1
  78:      1397.61 cm**-1
  79:      1411.51 cm**-1
  80:      1418.79 cm**-1
  81:      1425.82 cm**-1
  82:      1469.58 cm**-1
  83:      1471.81 cm**-1
  84:      1477.02 cm**-1
  85:      1482.86 cm**-1
  86:      1484.05 cm**-1
  87:      1484.39 cm**-1
  88:      1488.56 cm**-1
  89:      1495.29 cm**-1
  90:      1522.40 cm**-1
  91:      1530.77 cm**-1
  92:      1555.68 cm**-1
  93:      1589.65 cm**-1
  94:      1622.72 cm**-1
  95:      1641.06 cm**-1
  96:      2313.25 cm**-1
  97:      2920.74 cm**-1
  98:      2926.08 cm**-1
  99:      2936.42 cm**-1
 100:      2938.21 cm**-1
 101:      3053.33 cm**-1
 102:      3068.79 cm**-1
 103:      3070.67 cm**-1
 104:      3073.56 cm**-1
 105:      3095.23 cm**-1
 106:      3119.76 cm**-1
 107:      3137.71 cm**-1
 108:      3169.82 cm**-1
 109:      3176.50 cm**-1
 110:      3183.10 cm**-1
 111:      3188.92 cm**-1
 112:      3194.45 cm**-1
 113:      3482.60 cm**-1
 114:      3505.60 cm**-1
 115:      3760.15 cm**-1
 116:      3844.48 cm**-1

IR SPECTRUM
-----------

 Mode   freq       eps      Int      T**2         TX        TY        TZ
       cm**-1   L/(mol*cm) km/mol    a.u.
----------------------------------------------------------------------------
  7:     10.32   0.000449    2.27  0.013582  (-0.111890  0.001134 -0.032584)
  8:     19.84   0.000442    2.23  0.006954  (-0.021322 -0.040290 -0.069826)
  9:     26.83   0.000708    3.58  0.008234  ( 0.019583  0.061052  0.064214)
 10:     31.54   0.000336    1.70  0.003321  (-0.044152  0.022944 -0.029078)
 11:     43.35   0.000124    0.63  0.000894  (-0.005676 -0.006180 -0.028704)
 12:     45.30   0.001302    6.58  0.008970  (-0.010684  0.048324  0.080750)
 13:     50.78   0.001114    5.63  0.006848  (-0.007870 -0.003909 -0.082287)
 14:     52.27   0.000627    3.17  0.003744  (-0.057578  0.020417  0.003406)
 15:     66.84   0.001412    7.14  0.006593  ( 0.068518 -0.026403 -0.034653)
 16:     72.26   0.008670   43.82  0.037443  (-0.174765 -0.030647 -0.077208)
 17:     98.48   0.004123   20.83  0.013065  ( 0.107772 -0.021920  0.031133)
 18:    113.03   0.004080   20.62  0.011264  ( 0.096986 -0.031503  0.029417)
 19:    121.17   0.029632  149.75  0.076314  ( 0.271847 -0.006944  0.048629)
 20:    171.82   0.010887   55.02  0.019774  (-0.034215  0.054425  0.125065)
 21:    203.87   0.000577    2.92  0.000884  (-0.007949  0.007631 -0.027611)
 22:    215.95   0.000164    0.83  0.000237  ( 0.011780  0.001835  0.009762)
 23:    249.94   0.000394    1.99  0.000492  ( 0.008460  0.005320  0.019794)
 24:    271.15   0.002295   11.60  0.002641  (-0.025556  0.034341 -0.028434)
 25:    278.53   0.000572    2.89  0.000641  (-0.006034 -0.021379 -0.012139)
 26:    297.75   0.000211    1.06  0.000221  (-0.009767  0.008661  0.007089)
 27:    356.89   0.000120    0.60  0.000105  (-0.000652 -0.001594  0.010077)
 28:    418.49   0.000017    0.08  0.000012  (-0.002836  0.002008 -0.000567)
 29:    419.41   0.000012    0.06  0.000009  ( 0.000943 -0.002876 -0.000196)
 30:    465.74   0.000621    3.14  0.000416  ( 0.015817 -0.012728 -0.001914)
 31:    466.45   0.001247    6.30  0.000834  (-0.009667 -0.012552 -0.024148)
 32:    472.89   0.000011    0.06  0.000008  ( 0.002211 -0.000051  0.001618)
 33:    512.66   0.003466   17.51  0.002110  (-0.019598 -0.010091 -0.040294)
 34:    577.75   0.006822   34.47  0.003685  (-0.037929  0.033818  0.033201)
 35:    587.02   0.019050   96.27  0.010127  (-0.094037  0.035742  0.002610)
 36:    626.17   0.002014   10.18  0.001004  ( 0.004334 -0.029653 -0.010279)
 37:    647.23   0.003181   16.07  0.001534  (-0.001499  0.037527  0.011096)
 38:    715.51   0.011832   59.80  0.005161  (-0.007658  0.038384  0.060238)
 39:    738.01   0.010928   55.23  0.004621  ( 0.023014 -0.038142 -0.051346)
 40:    778.98   0.001795    9.07  0.000719  (-0.009654  0.009534  0.023129)
 41:    795.32   0.013727   69.37  0.005386  ( 0.069102 -0.019241 -0.015515)
 42:    812.96   0.001170    5.91  0.000449  (-0.001817 -0.014096 -0.015717)
 43:    832.72   0.041093  207.67  0.015400  ( 0.118234 -0.032006 -0.019897)
 44:    854.00   0.007310   36.94  0.002671  ( 0.050770 -0.009627  0.000975)
 45:    862.93   0.005299   26.78  0.001916  ( 0.015641 -0.037005 -0.017389)
 46:    864.74   0.000016    0.08  0.000006  (-0.002080 -0.001181  0.000435)
 47:    865.36   0.001017    5.14  0.000367  (-0.007360  0.015122  0.009166)
 48:    883.64   0.003910   19.76  0.001381  (-0.021668  0.028726  0.009288)
 49:    896.02   0.000226    1.14  0.000079  (-0.006453 -0.004113 -0.004484)
 50:    950.52   0.001138    5.75  0.000374  ( 0.007604 -0.015176 -0.009246)
 51:    958.95   0.004443   22.45  0.001446  (-0.033197 -0.000119  0.018543)
 52:    970.63   0.002464   12.45  0.000792  ( 0.007253  0.019577 -0.018874)
 53:    993.25   0.000005    0.02  0.000001  ( 0.000695 -0.000070 -0.000990)
 54:   1013.79   0.000073    0.37  0.000022  (-0.000150 -0.001310 -0.004538)
 55:   1023.05   0.000059    0.30  0.000018  ( 0.001870 -0.003378  0.001724)
 56:   1049.88   0.002584   13.06  0.000768  (-0.017721  0.015794 -0.014305)
 57:   1064.60   0.000043    0.22  0.000013  ( 0.000759  0.002085 -0.002792)
 58:   1072.38   0.000200    1.01  0.000058  (-0.003024 -0.006341 -0.002980)
 59:   1093.08   0.003326   16.81  0.000949  (-0.018367 -0.020283  0.014166)
 60:   1095.14   0.007738   39.10  0.002205  ( 0.040115  0.000032 -0.024407)
 61:   1115.59   0.002616   13.22  0.000732  (-0.022797  0.013468  0.005541)
 62:   1131.60   0.000138    0.70  0.000038  (-0.003518 -0.004425 -0.002452)
 63:   1132.66   0.000545    2.75  0.000150  (-0.011140 -0.003508  0.003707)
 64:   1141.28   0.000200    1.01  0.000055  (-0.006553 -0.000905  0.003315)
 65:   1141.99   0.002039   10.31  0.000557  (-0.007137  0.014656  0.017074)
 66:   1146.21   0.021193  107.10  0.005770  (-0.027595 -0.057907 -0.040686)
 67:   1177.80   0.000057    0.29  0.000015  ( 0.001123  0.002218 -0.002982)
 68:   1202.09   0.000156    0.79  0.000041  (-0.000825 -0.004928  0.003949)
 69:   1207.14   0.000140    0.71  0.000036  ( 0.001883  0.003608  0.004431)
 70:   1211.38   0.000005    0.03  0.000001  ( 0.000326  0.000229  0.001063)
 71:   1265.75   0.004925   24.89  0.001214  ( 0.012245  0.004481  0.032314)
 72:   1290.59   0.003459   17.48  0.000836  ( 0.020493  0.001785 -0.020327)
 73:   1317.82   0.000023    0.12  0.000006  ( 0.001227 -0.000678  0.001891)
 74:   1328.73   0.000151    0.76  0.000035  ( 0.003072  0.005089 -0.000130)
 75:   1338.08   0.005834   29.48  0.001361  (-0.011132 -0.028944 -0.019972)
 76:   1343.65   0.014266   72.09  0.003313  ( 0.019490  0.044528  0.030833)
 77:   1364.99   0.000101    0.51  0.000023  ( 0.001152 -0.004356 -0.001702)
 78:   1397.61   0.016052   81.12  0.003584  ( 0.025301 -0.053796 -0.007067)
 79:   1411.51   0.000187    0.94  0.000041  (-0.001857  0.005250 -0.003204)
 80:   1418.79   0.025026  126.47  0.005504  ( 0.041677 -0.047552 -0.038810)
 81:   1425.82   0.000003    0.02  0.000001  ( 0.000578 -0.000143  0.000615)
 82:   1469.58   0.002452   12.39  0.000521  ( 0.021476  0.006029 -0.004811)
 83:   1471.81   0.000035    0.18  0.000007  ( 0.000581  0.001833  0.001935)
 84:   1477.02   0.002496   12.61  0.000527  (-0.005307 -0.019993 -0.009972)
 85:   1482.86   0.000079    0.40  0.000017  ( 0.001060  0.002894 -0.002672)
 86:   1484.05   0.002936   14.84  0.000617  (-0.014306 -0.017961  0.009497)
 87:   1484.39   0.000319    1.61  0.000067  (-0.000457 -0.006499  0.004970)
 88:   1488.56   0.003025   15.29  0.000634  ( 0.000179 -0.013390  0.021327)
 89:   1495.29   0.000024    0.12  0.000005  (-0.001948  0.000225 -0.001073)
 90:   1522.40   0.002430   12.28  0.000498  ( 0.005690  0.018126  0.011710)
 91:   1530.77   0.003121   15.77  0.000636  ( 0.023857 -0.003908  0.007204)
 92:   1555.68   0.131271  663.39  0.026332  ( 0.076227  0.091264 -0.110421)
 93:   1589.65   0.022655  114.49  0.004447  ( 0.010123  0.060953 -0.025092)
 94:   1622.72   0.000107    0.54  0.000021  (-0.002827 -0.003100  0.001722)
 95:   1641.06   0.000171    0.86  0.000033  (-0.001372  0.003762 -0.004063)
 96:   2313.25   0.001120    5.66  0.000151  ( 0.007392  0.009811 -0.000448)
 97:   2920.74   0.021648  109.40  0.002313  ( 0.034769  0.032865  0.004899)
 98:   2926.08   0.023099  116.73  0.002464  (-0.028910  0.010651  0.038914)
 99:   2936.42   0.061523  310.91  0.006538  ( 0.058349  0.001829 -0.055949)
100:   2938.21   0.031339  158.37  0.003328  (-0.047767 -0.015287  0.028515)
101:   3053.33   0.001891    9.56  0.000193  ( 0.000287 -0.001106 -0.013854)
102:   3068.79   0.007344   37.11  0.000747  (-0.023670  0.013317  0.003029)
103:   3070.67   0.024488  123.75  0.002489  ( 0.006511 -0.042658 -0.025031)
104:   3073.56   0.011057   55.88  0.001123  (-0.026470 -0.014844 -0.014201)
105:   3095.23   0.011819   59.73  0.001192  (-0.025873 -0.016287 -0.016029)
106:   3119.76   0.002930   14.81  0.000293  ( 0.006476 -0.015598  0.002806)
107:   3137.71   0.002723   13.76  0.000271  ( 0.015942  0.003218  0.002512)
108:   3169.82   0.000048    0.24  0.000005  ( 0.001255  0.001713 -0.000436)
109:   3176.50   0.000928    4.69  0.000091  ( 0.007496  0.005654 -0.001739)
110:   3183.10   0.001462    7.39  0.000143  (-0.008312  0.006089 -0.006100)
111:   3188.92   0.003394   17.15  0.000332  (-0.004997 -0.015032  0.009013)
112:   3194.45   0.002163   10.93  0.000211  ( 0.013397 -0.002922  0.004821)
113:   3482.60   0.035073  177.25  0.003143  ( 0.021934 -0.036416  0.036545)
114:   3505.60   0.000698    3.53  0.000062  ( 0.001130 -0.004950  0.006030)
115:   3760.15   0.007983   40.34  0.000663  ( 0.006062  0.023242 -0.009252)
116:   3844.48   0.025602  129.38  0.002078  (-0.025569  0.018160  0.033085)

--------------------------
THERMOCHEMISTRY AT 298.15K
--------------------------

Temperature         ... 298.15 K
Pressure            ... 1.00 atm
Total Mass          ... 256.31 AMU

Throughout the following assumptions are being made:
  (1) The electronic state is orbitally nondegenerate
  (2) There are no thermally accessible electronically excited states
  (3) Hindered rotations indicated by low frequency modes are not
      treated as such but are treated as vibrations and this may
      cause some error
  (4) All equations used are the standard statistical mechanics
      equations for an ideal gas
  (5) All vibrations are strictly harmonic

freq.      10.32  E(vib)   ...       0.58
freq.      19.84  E(vib)   ...       0.56
freq.      26.83  E(vib)   ...       0.55
freq.      31.54  E(vib)   ...       0.55
freq.      43.35  E(vib)   ...       0.53
freq.      45.30  E(vib)   ...       0.53
freq.      50.78  E(vib)   ...       0.52
freq.      52.27  E(vib)   ...       0.52
freq.      66.84  E(vib)   ...       0.50
freq.      72.26  E(vib)   ...       0.50
freq.      98.48  E(vib)   ...       0.46
freq.     113.03  E(vib)   ...       0.45
freq.     121.17  E(vib)   ...       0.44
freq.     171.82  E(vib)   ...       0.38
freq.     203.87  E(vib)   ...       0.35
freq.     215.95  E(vib)   ...       0.34
freq.     249.94  E(vib)   ...       0.31
freq.     271.15  E(vib)   ...       0.29
freq.     278.53  E(vib)   ...       0.28
freq.     297.75  E(vib)   ...       0.27
freq.     356.89  E(vib)   ...       0.22
freq.     418.49  E(vib)   ...       0.18
freq.     419.41  E(vib)   ...       0.18
freq.     465.74  E(vib)   ...       0.16
freq.     466.45  E(vib)   ...       0.16
freq.     472.89  E(vib)   ...       0.15
freq.     512.66  E(vib)   ...       0.13
freq.     577.75  E(vib)   ...       0.11
freq.     587.02  E(vib)   ...       0.10
freq.     626.17  E(vib)   ...       0.09
freq.     647.23  E(vib)   ...       0.09
freq.     715.51  E(vib)   ...       0.07
freq.     738.01  E(vib)   ...       0.06
freq.     778.98  E(vib)   ...       0.05
freq.     795.32  E(vib)   ...       0.05
freq.     812.96  E(vib)   ...       0.05
freq.     832.72  E(vib)   ...       0.04
freq.     854.00  E(vib)   ...       0.04
freq.     862.93  E(vib)   ...       0.04
freq.     864.74  E(vib)   ...       0.04
freq.     865.36  E(vib)   ...       0.04
freq.     883.64  E(vib)   ...       0.04
freq.     896.02  E(vib)   ...       0.03
freq.     950.52  E(vib)   ...       0.03
freq.     958.95  E(vib)   ...       0.03
freq.     970.63  E(vib)   ...       0.03
freq.     993.25  E(vib)   ...       0.02
freq.    1013.79  E(vib)   ...       0.02
freq.    1023.05  E(vib)   ...       0.02
freq.    1049.88  E(vib)   ...       0.02
freq.    1064.60  E(vib)   ...       0.02
freq.    1072.38  E(vib)   ...       0.02
freq.    1093.08  E(vib)   ...       0.02
freq.    1095.14  E(vib)   ...       0.02
freq.    1115.59  E(vib)   ...       0.01
freq.    1131.60  E(vib)   ...       0.01
freq.    1132.66  E(vib)   ...       0.01
freq.    1141.28  E(vib)   ...       0.01
freq.    1141.99  E(vib)   ...       0.01
freq.    1146.21  E(vib)   ...       0.01
freq.    1177.80  E(vib)   ...       0.01
freq.    1202.09  E(vib)   ...       0.01
freq.    1207.14  E(vib)   ...       0.01
freq.    1211.38  E(vib)   ...       0.01
freq.    1265.75  E(vib)   ...       0.01
freq.    1290.59  E(vib)   ...       0.01
freq.    1317.82  E(vib)   ...       0.01
freq.    1328.73  E(vib)   ...       0.01
freq.    1338.08  E(vib)   ...       0.01
freq.    1343.65  E(vib)   ...       0.01
freq.    1364.99  E(vib)   ...       0.01
freq.    1397.61  E(vib)   ...       0.00
freq.    1411.51  E(vib)   ...       0.00
freq.    1418.79  E(vib)   ...       0.00
freq.    1425.82  E(vib)   ...       0.00
freq.    1469.58  E(vib)   ...       0.00
freq.    1471.81  E(vib)   ...       0.00
freq.    1477.02  E(vib)   ...       0.00
freq.    1482.86  E(vib)   ...       0.00
freq.    1484.05  E(vib)   ...       0.00
freq.    1484.39  E(vib)   ...       0.00
freq.    1488.56  E(vib)   ...       0.00
freq.    1495.29  E(vib)   ...       0.00
freq.    1522.40  E(vib)   ...       0.00
freq.    1530.77  E(vib)   ...       0.00
freq.    1555.68  E(vib)   ...       0.00
freq.    1589.65  E(vib)   ...       0.00
freq.    1622.72  E(vib)   ...       0.00
freq.    1641.06  E(vib)   ...       0.00
freq.    2313.25  E(vib)   ...       0.00
freq.    2920.74  E(vib)   ...       0.00
freq.    2926.08  E(vib)   ...       0.00
freq.    2936.42  E(vib)   ...       0.00
freq.    2938.21  E(vib)   ...       0.00
freq.    3053.33  E(vib)   ...       0.00
freq.    3068.79  E(vib)   ...       0.00
freq.    3070.67  E(vib)   ...       0.00
freq.    3073.56  E(vib)   ...       0.00
freq.    3095.23  E(vib)   ...       0.00
freq.    3119.76  E(vib)   ...       0.00
freq.    3137.71  E(vib)   ...       0.00
freq.    3169.82  E(vib)   ...       0.00
freq.    3176.50  E(vib)   ...       0.00
freq.    3183.10  E(vib)   ...       0.00
freq.    3188.92  E(vib)   ...       0.00
freq.    3194.45  E(vib)   ...       0.00
freq.    3482.60  E(vib)   ...       0.00
freq.    3505.60  E(vib)   ...       0.00
freq.    3760.15  E(vib)   ...       0.00
freq.    3844.48  E(vib)   ...       0.00

------------
INNER ENERGY
------------

The inner energy is: U= E(el) + E(ZPE) + E(vib) + E(rot) + E(trans)
    E(el)   - is the total energy from the electronic structure calculation
              = E(kin-el) + E(nuc-el) + E(el-el) + E(nuc-nuc)
    E(ZPE)  - the the zero temperature vibrational energy from the frequency calculation
    E(vib)  - the the finite temperature correction to E(ZPE) due to population
              of excited vibrational states
    E(rot)  - is the rotational thermal energy
    E(trans)- is the translational thermal energy

Summary of contributions to the inner energy U:
Electronic energy                ...   -859.67635899 Eh
Zero point energy                ...      0.32615040 Eh     204.66 kcal/mol
Thermal vibrational correction   ...      0.01831020 Eh      11.49 kcal/mol
Thermal rotational correction    ...      0.00141627 Eh       0.89 kcal/mol
Thermal translational correction ...      0.00141627 Eh       0.89 kcal/mol
-----------------------------------------------------------------------
Total thermal energy                   -859.32906584 Eh

Summary of corrections to the electronic energy:
(perhaps to be used in another calculation)
Total thermal correction                  0.02114274 Eh      13.27 kcal/mol
Non-thermal (ZPE) correction              0.32615040 Eh     204.66 kcal/mol
-----------------------------------------------------------------------
Total correction                          0.34729314 Eh     217.93 kcal/mol

--------
ENTHALPY

Rotational constants in cm-1:     0.025809     0.005858     0.005344

                             ****ORCA TERMINATED NORMALLY****
TOTAL RUN TIME: 0 days 1 hours 15 minutes 35 seconds 653 msec
