                         Program Version 5.0.4 -  RELEASE  -
|  1> !  NUMFREQ B3LYP def2-TZVP CPCM D3
|  2> %pal nprocs 102 end
|  3> %cpcm epsilon 78.4 end
|  4> *xyz -1 1
|  5> C   -2.34304228579715 0.61256991173244 -0.62737752246131
|  6> C   -1.06371149866044 0.79663267366164 -0.12825243894238
|  7> C   -0.0724165626182 -0.15349159090067 -0.38678679585458
|  8> C   -0.4135578755999 -1.2806955947633 -1.12989176084609
|  9> C   -1.71116000274086 -1.43110713506563 -1.60323607114695
| 10> C   -2.70391480925767 -0.49803249152475 -1.37234213957706
| 11> H   -0.84145162276959 1.66990496629506 0.46308775827099
| 12> H   0.3156307298918 -2.04367385016507 -1.35093997810238
| 13> H   -3.7048348182502 -0.62867168453229 -1.74802766500291
| 14> N   -2.04519199130523 -2.62793766355929 -2.3893919685091
| 15> O   -3.18418302546663 -2.73213507713 -2.82149420323377
| 16> O   -1.16697883559121 -3.45924629790181 -2.57067283529784
| 17> C   1.30585487912383 0.02555427995277 0.17399803891102
| 18> H   1.16818297999111 0.46023014232876 1.3249756393872
| 19> C   2.15781417872307 -1.22249356323829 0.28895556806808
| 20> H   3.03920501563429 -1.02286217935867 0.89404136018501
| 21> H   2.48684831570905 -1.60624292771119 -0.67974003900129
| 22> H   1.57460148444579 -1.99641210195836 0.78871418254514
| 23> N   2.02245994485646 1.12625488937431 -0.47694785850037
| 24> O   3.2546513721574 1.10933842811659 -0.46826417951407
| 25> O   1.38420966782794 2.07900699740791 -0.93421773772579
| 26> O   3.51702147162086 1.80038392105833 3.18241837019653
| 27> H   3.77156649212694 1.40314681856697 4.02228938877933
| 28> N   -3.36767045402275 1.63110099339812 -0.35158376867012
| 29> O   -4.50958916145122 1.41380480857802 -0.73054303298234
| 30> O   -3.02553370336922 2.64439648242092 0.23968587765773
| 31> H   0.46509799717569 1.59754729269265 2.7046734692479
| 32> H   2.5843679180722 1.45691922093126 3.00093826987228
| 33> O   1.10572419954379 0.87621033129354 2.68593207224711
| 34> *
| 35>
| 36>                          ****END OF INPUT****

CARTESIAN COORDINATES (ANGSTROEM)
---------------------------------
  C     -2.343042    0.612570   -0.627378
  C     -1.063711    0.796633   -0.128252
  C     -0.072417   -0.153492   -0.386787
  C     -0.413558   -1.280696   -1.129892
  C     -1.711160   -1.431107   -1.603236
  C     -2.703915   -0.498032   -1.372342
  H     -0.841452    1.669905    0.463088
  H      0.315631   -2.043674   -1.350940
  H     -3.704835   -0.628672   -1.748028
  N     -2.045192   -2.627938   -2.389392
  O     -3.184183   -2.732135   -2.821494
  O     -1.166979   -3.459246   -2.570673
  C      1.305855    0.025554    0.173998
  H      1.168183    0.460230    1.324976
  C      2.157814   -1.222494    0.288956
  H      3.039205   -1.022862    0.894041
  H      2.486848   -1.606243   -0.679740
  H      1.574601   -1.996412    0.788714
  N      2.022460    1.126255   -0.476948
  O      3.254651    1.109338   -0.468264
  O      1.384210    2.079007   -0.934218
  O      3.517021    1.800384    3.182418
  H      3.771566    1.403147    4.022289
  N     -3.367670    1.631101   -0.351584
  O     -4.509589    1.413805   -0.730543
  O     -3.025534    2.644396    0.239686
  H      0.465098    1.597547    2.704673
  H      2.584368    1.456919    3.000938
  O      1.105724    0.876210    2.685932

 Total Charge           Charge          ....   -1
 Multiplicity           Mult            ....    1
 Number of Electrons    NEL             ....  144
 Basis Dimension        Dim             ....  649

ORBITAL ENERGIES
----------------

  NO   OCC          E(Eh)            E(eV)
   0   2.0000     -19.175224      -521.7844
   1   2.0000     -19.175198      -521.7837
   2   2.0000     -19.175029      -521.7791
   3   2.0000     -19.174995      -521.7781
   4   2.0000     -19.146417      -521.0005
   5   2.0000     -19.144868      -520.9583
   6   2.0000     -19.082210      -519.2533
   7   2.0000     -19.046122      -518.2713
   8   2.0000     -14.568922      -396.4405
   9   2.0000     -14.568847      -396.4385
  10   2.0000     -14.533540      -395.4777
  11   2.0000     -10.251830      -278.9665
  12   2.0000     -10.251590      -278.9599
  13   2.0000     -10.219099      -278.0758
  14   2.0000     -10.215169      -277.9689
  15   2.0000     -10.212196      -277.8880
  16   2.0000     -10.212109      -277.8856
  17   2.0000     -10.204677      -277.6834
  18   2.0000     -10.162038      -276.5231
  19   2.0000      -1.249672       -34.0053
  20   2.0000      -1.249430       -33.9987
  21   2.0000      -1.214171       -33.0393
  22   2.0000      -1.074740       -29.2452
  23   2.0000      -1.074536       -29.2396
  24   2.0000      -1.038229       -28.2517
  25   2.0000      -0.964907       -26.2564
  26   2.0000      -0.918491       -24.9934
  27   2.0000      -0.896996       -24.4085
  28   2.0000      -0.845124       -22.9970
  29   2.0000      -0.843186       -22.9442
  30   2.0000      -0.783331       -21.3155
  31   2.0000      -0.731639       -19.9089
  32   2.0000      -0.718238       -19.5443
  33   2.0000      -0.693116       -18.8607
  34   2.0000      -0.640509       -17.4291
  35   2.0000      -0.604597       -16.4519
  36   2.0000      -0.590781       -16.0760
  37   2.0000      -0.566651       -15.4194
  38   2.0000      -0.556607       -15.1461
  39   2.0000      -0.553619       -15.0647
  40   2.0000      -0.546664       -14.8755
  41   2.0000      -0.540918       -14.7191
  42   2.0000      -0.533428       -14.5153
  43   2.0000      -0.531903       -14.4738
  44   2.0000      -0.520321       -14.1587
  45   2.0000      -0.513240       -13.9660
  46   2.0000      -0.509141       -13.8544
  47   2.0000      -0.493052       -13.4166
  48   2.0000      -0.489079       -13.3085
  49   2.0000      -0.451002       -12.2724
  50   2.0000      -0.416827       -11.3424
  51   2.0000      -0.408948       -11.1280
  52   2.0000      -0.407941       -11.1006
  53   2.0000      -0.397634       -10.8202
  54   2.0000      -0.391466       -10.6523
  55   2.0000      -0.376327       -10.2404
  56   2.0000      -0.369221       -10.0470
  57   2.0000      -0.341808        -9.3011
  58   2.0000      -0.338086        -9.1998
  59   2.0000      -0.336329        -9.1520
  60   2.0000      -0.336022        -9.1436
  61   2.0000      -0.331503        -9.0206
  62   2.0000      -0.316614        -8.6155
  63   2.0000      -0.315327        -8.5805
  64   2.0000      -0.313423        -8.5287
  65   2.0000      -0.309762        -8.4290
  66   2.0000      -0.302704        -8.2370
  67   2.0000      -0.295656        -8.0452
  68   2.0000      -0.284045        -7.7293
  69   2.0000      -0.277601        -7.5539
  70   2.0000      -0.248931        -6.7738
  71   2.0000      -0.219953        -5.9852
  72   0.0000      -0.111379        -3.0308
  73   0.0000      -0.105988        -2.8841
  74   0.0000      -0.061046        -1.6611
  75   0.0000      -0.030414        -0.8276
  76   0.0000      -0.003794        -0.1032

MULLIKEN ATOMIC CHARGES
-----------------------
   0 C :    0.134210
   1 C :   -0.214846
   2 C :    0.140187
   3 C :   -0.207348
   4 C :    0.124862
   5 C :   -0.189875
   6 H :    0.163166
   7 H :    0.184370
   8 H :    0.186246
   9 N :    0.464496
  10 O :   -0.345598
  11 O :   -0.344871
  12 C :   -0.029607
  13 H :    0.232229
  14 C :   -0.398465
  15 H :    0.129984
  16 H :    0.128730
  17 H :    0.140370
  18 N :    0.430795
  19 O :   -0.393052
  20 O :   -0.402901
  21 O :   -0.784201
  22 H :    0.331457
  23 N :    0.463312
  24 O :   -0.346158
  25 O :   -0.342026
  26 H :    0.301794
  27 H :    0.350782
  28 O :   -0.908040
Sum of atomic charges:   -1.0000000

LOEWDIN ATOMIC CHARGES
----------------------
   0 C :   -0.140679
   1 C :   -0.025631
   2 C :   -0.110774
   3 C :   -0.021791
   4 C :   -0.141200
   5 C :   -0.039564
   6 H :    0.165443
   7 H :    0.170378
   8 H :    0.170398
   9 N :   -0.012419
  10 O :   -0.038850
  11 O :   -0.038521
  12 C :   -0.265026
  13 H :    0.185719
  14 C :   -0.283995
  15 H :    0.126117
  16 H :    0.125233
  17 H :    0.135757
  18 N :   -0.033749
  19 O :   -0.093751
  20 O :   -0.095429
  21 O :   -0.424682
  22 H :    0.148799
  23 N :   -0.012370
  24 O :   -0.038878
  25 O :   -0.037153
  26 H :    0.109489
  27 H :    0.123992
  28 O :   -0.606866

  Mayer bond orders larger than 0.100000
B(  0-C ,  1-C ) :   1.3999 B(  0-C ,  5-C ) :   1.3911 B(  0-C , 23-N ) :   0.9979
B(  1-C ,  2-C ) :   1.3303 B(  1-C ,  6-H ) :   0.9306 B(  2-C ,  3-C ) :   1.3766
B(  2-C , 12-C ) :   0.9086 B(  3-C ,  4-C ) :   1.4053 B(  3-C ,  7-H ) :   0.9149
B(  4-C ,  5-C ) :   1.4086 B(  4-C ,  9-N ) :   1.0013 B(  5-C ,  8-H ) :   0.8997
B(  9-N , 10-O ) :   1.5966 B(  9-N , 11-O ) :   1.5914 B( 10-O , 11-O ) :   0.1978
B( 12-C , 13-H ) :   0.6007 B( 12-C , 14-C ) :   0.9186 B( 12-C , 18-N ) :   0.9351
B( 12-C , 28-O ) :  -0.1662 B( 13-H , 28-O ) :   0.4181 B( 14-C , 15-H ) :   0.9670
B( 14-C , 16-H ) :   0.9557 B( 14-C , 17-H ) :   0.9811 B( 18-N , 19-O ) :   1.5590
B( 18-N , 20-O ) :   1.5656 B( 19-O , 20-O ) :   0.1538 B( 21-O , 22-H ) :   0.8980
B( 21-O , 27-H ) :   0.7469 B( 23-N , 24-O ) :   1.5953 B( 23-N , 25-O ) :   1.5992
B( 24-O , 25-O ) :   0.1984 B( 26-H , 28-O ) :   0.9116 B( 27-H , 28-O ) :   0.2124

Dispersion correction           -0.056169046
FINAL SINGLE POINT ENERGY     -1076.752383330375
Dispersion correction            ... done

DIPOLE MOMENT
-------------
                                X             Y             Z
Electronic contribution:    -17.98787      -1.24517     -14.82832
Nuclear contribution   :     14.84139      -1.40125      12.78652
                        -----------------------------------------
Total Dipole Moment    :     -3.14648      -2.64642      -2.04180
                        -----------------------------------------
Magnitude (a.u.)       :      4.59052
Magnitude (Debye)      :     11.66817

VIBRATIONAL FREQUENCIES
-----------------------

Scaling factor for frequencies =  1.000000000 (already applied!)

   0:         0.00 cm**-1
   1:         0.00 cm**-1
   2:         0.00 cm**-1
   3:         0.00 cm**-1
   4:         0.00 cm**-1
   5:         0.00 cm**-1
   6:      -463.30 cm**-1 ***imaginary mode***
   7:       -36.99 cm**-1 ***imaginary mode***
   8:       -12.80 cm**-1 ***imaginary mode***
   9:        25.62 cm**-1
  10:        32.62 cm**-1
  11:        34.19 cm**-1
  12:        42.52 cm**-1
  13:        53.80 cm**-1
  14:        69.43 cm**-1
  15:        85.42 cm**-1
  16:        89.49 cm**-1
  17:       144.83 cm**-1
  18:       152.54 cm**-1
  19:       175.13 cm**-1
  20:       196.46 cm**-1
  21:       254.08 cm**-1
  22:       267.11 cm**-1
  23:       268.28 cm**-1
  24:       297.51 cm**-1
  25:       306.09 cm**-1
  26:       336.84 cm**-1
  27:       354.82 cm**-1
  28:       362.63 cm**-1
  29:       401.37 cm**-1
  30:       478.04 cm**-1
  31:       488.88 cm**-1
  32:       504.02 cm**-1
  33:       520.94 cm**-1
  34:       532.34 cm**-1
  35:       569.05 cm**-1
  36:       599.51 cm**-1
  37:       619.54 cm**-1
  38:       667.80 cm**-1
  39:       681.10 cm**-1
  40:       749.50 cm**-1
  41:       755.67 cm**-1
  42:       776.71 cm**-1
  43:       792.42 cm**-1
  44:       804.35 cm**-1
  45:       834.69 cm**-1
  46:       900.39 cm**-1
  47:       933.90 cm**-1
  48:       937.67 cm**-1
  49:       953.37 cm**-1
  50:       958.30 cm**-1
  51:       968.19 cm**-1
  52:       972.37 cm**-1
  53:      1025.77 cm**-1
  54:      1069.74 cm**-1
  55:      1092.20 cm**-1
  56:      1127.80 cm**-1
  57:      1140.54 cm**-1
  58:      1157.05 cm**-1
  59:      1279.43 cm**-1
  60:      1286.59 cm**-1
  61:      1358.00 cm**-1
  62:      1361.93 cm**-1
  63:      1374.44 cm**-1
  64:      1391.54 cm**-1
  65:      1422.74 cm**-1
  66:      1441.22 cm**-1
  67:      1450.66 cm**-1
  68:      1478.18 cm**-1
  69:      1483.61 cm**-1
  70:      1489.06 cm**-1
  71:      1496.59 cm**-1
  72:      1550.49 cm**-1
  73:      1552.12 cm**-1
  74:      1560.45 cm**-1
  75:      1624.04 cm**-1
  76:      1631.80 cm**-1
  77:      1656.60 cm**-1
  78:      2877.82 cm**-1
  79:      3035.57 cm**-1
  80:      3101.43 cm**-1
  81:      3130.79 cm**-1
  82:      3241.62 cm**-1
  83:      3246.51 cm**-1
  84:      3257.91 cm**-1
  85:      3784.98 cm**-1
  86:      3819.88 cm**-1

IR SPECTRUM
-----------

 Mode   freq       eps      Int      T**2         TX        TY        TZ
       cm**-1   L/(mol*cm) km/mol    a.u.
----------------------------------------------------------------------------
  9:     25.62   0.001269    6.41  0.015459  (-0.051142 -0.021495  0.111271)
 10:     32.62   0.000093    0.47  0.000894  (-0.001750 -0.025406  0.015654)
 11:     34.19   0.000069    0.35  0.000628  ( 0.009026 -0.006227 -0.022527)
 12:     42.52   0.000740    3.74  0.005431  ( 0.019088 -0.053222 -0.047260)
 13:     53.80   0.001724    8.71  0.010000  (-0.079513 -0.055841 -0.023664)
 14:     69.43   0.001173    5.93  0.005274  ( 0.025759  0.060312  0.031189)
 15:     85.42   0.004537   22.93  0.016575  ( 0.012885  0.044730  0.120036)
 16:     89.49   0.002659   13.44  0.009273  (-0.058438  0.073647  0.020837)
 17:    144.83   0.000605    3.06  0.001303  (-0.020287 -0.029856  0.000019)
 18:    152.54   0.001185    5.99  0.002424  (-0.028323  0.004363 -0.040035)
 19:    175.13   0.002330   11.78  0.004152  ( 0.056605  0.029091 -0.010100)
 20:    196.46   0.000576    2.91  0.000915  ( 0.009664  0.004349 -0.028332)
 21:    254.08   0.001206    6.09  0.001481  ( 0.027697  0.021128  0.016344)
 22:    267.11   0.024757  125.11  0.028923  (-0.158420 -0.060380 -0.013446)
 23:    268.28   0.003047   15.40  0.003545  (-0.047650 -0.027906 -0.022257)
 24:    297.51   0.016021   80.97  0.016805  ( 0.094689  0.038492 -0.079733)
 25:    306.09   0.005140   25.97  0.005240  (-0.056345 -0.033263  0.030962)
 26:    336.84   0.003959   20.01  0.003668  (-0.013074  0.019090  0.055971)
 27:    354.82   0.000997    5.04  0.000877  (-0.010951  0.021119  0.017639)
 28:    362.63   0.004282   21.64  0.003685  ( 0.002606  0.023132  0.056065)
 29:    401.37   0.021633  109.33  0.016820  ( 0.020371 -0.017972 -0.126814)
 30:    478.04   0.000130    0.66  0.000085  ( 0.006388 -0.001097  0.006551)
 31:    488.88   0.050185  253.62  0.032035  (-0.012433 -0.012031 -0.178144)
 32:    504.02   0.024473  123.68  0.015152  (-0.080198 -0.013721 -0.092371)
 33:    520.94   0.003149   15.91  0.001886  ( 0.034058 -0.018934 -0.019184)
 34:    532.34   0.002141   10.82  0.001255  (-0.033583 -0.011283  0.000190)
 35:    569.05   0.002952   14.92  0.001619  ( 0.015124  0.021830  0.030225)
 36:    599.51   0.036949  186.72  0.019233  ( 0.021469  0.011988  0.136486)
 37:    619.54   0.002556   12.92  0.001287  ( 0.028343 -0.015939  0.015166)
 38:    667.80   0.016905   85.43  0.007900  ( 0.015857  0.011838  0.086650)
 39:    681.10   0.005100   25.77  0.002337  ( 0.005616 -0.022737  0.042288)
 40:    749.50   0.012763   64.50  0.005314  (-0.021106  0.068322  0.014167)
 41:    755.67   0.024616  124.40  0.010165  ( 0.031793  0.033992 -0.089438)
 42:    776.71   0.203169  1026.73  0.081629  ( 0.061723  0.009308 -0.278805)
 43:    792.42   0.000564    2.85  0.000222  ( 0.009036  0.001472 -0.011765)
 44:    804.35   0.065865  332.85  0.025554  (-0.066093  0.003434  0.145511)
 45:    834.69   0.065955  333.31  0.024659  ( 0.002317 -0.003825 -0.156967)
 46:    900.39   0.038663  195.38  0.013400  ( 0.010826  0.020467  0.113419)
 47:    933.90   0.000589    2.98  0.000197  (-0.005472  0.007009  0.010853)
 48:    937.67   0.022679  114.61  0.007548  (-0.019234  0.062437  0.057265)
 49:    953.37   0.005280   26.68  0.001728  ( 0.020999  0.031237 -0.017647)
 50:    958.30   0.065218  329.58  0.021238  ( 0.016153  0.023931  0.142842)
 51:    968.19   0.005290   26.74  0.001705  ( 0.002382  0.003917 -0.041039)
 52:    972.37   0.035347  178.63  0.011344  (-0.020895  0.088683  0.055159)
 53:   1025.77   0.000477    2.41  0.000145  ( 0.010841  0.001809  0.004941)
 54:   1069.74   0.005511   27.85  0.001608  ( 0.023362  0.029379  0.014100)
 55:   1092.20   0.024702  124.83  0.007058  (-0.021105  0.081314  0.000610)
 56:   1127.80   0.011688   59.07  0.003234  (-0.029127  0.003994  0.048681)
 57:   1140.54   0.029694  150.06  0.008125  (-0.059876  0.000782  0.067370)
 58:   1157.05   0.027547  139.21  0.007430  (-0.044122 -0.004716 -0.073896)
 59:   1279.43   0.011414   57.68  0.002784  ( 0.004146  0.052098  0.007259)
 60:   1286.59   0.000699    3.53  0.000169  ( 0.006327  0.010769 -0.003673)
 61:   1358.00   0.188731  953.77  0.043370  ( 0.041412 -0.182581 -0.091209)
 62:   1361.93   0.005924   29.94  0.001357  ( 0.013872  0.029872  0.016509)
 63:   1374.44   0.075897  383.55  0.017232  ( 0.125236  0.009517  0.038180)
 64:   1391.54   0.028918  146.14  0.006485  ( 0.042624  0.052738  0.043439)
 65:   1422.74   0.001974    9.98  0.000433  (-0.008664 -0.017502 -0.007191)
 66:   1441.22   0.065732  332.18  0.014233  (-0.012656 -0.100730 -0.062659)
 67:   1450.66   0.004155   21.00  0.000894  (-0.016627 -0.017998 -0.017129)
 68:   1478.18   0.024402  123.32  0.005152  (-0.041455 -0.011991 -0.057353)
 69:   1483.61   0.090338  456.53  0.019002  (-0.120582  0.046469 -0.047983)
 70:   1489.06   0.059995  303.19  0.012573  (-0.096798 -0.016498 -0.054139)
 71:   1496.59   0.017732   89.61  0.003697  ( 0.057319 -0.017447 -0.010372)
 72:   1550.49   0.044117  222.95  0.008879  (-0.090454  0.018780 -0.018564)
 73:   1552.12   0.060537  305.93  0.012171  ( 0.004139  0.099566  0.047336)
 74:   1560.45   0.111966  565.83  0.022391  (-0.146275 -0.010578 -0.029718)
 75:   1624.04   0.006559   33.15  0.001260  (-0.009723  0.027911  0.019665)
 76:   1631.80   0.018925   95.64  0.003619  (-0.029057 -0.042126  0.031627)
 77:   1656.60   0.006967   35.21  0.001312  ( 0.021894  0.009602  0.027220)
 78:   2877.82   0.409419  2069.03  0.044396  (-0.190417 -0.055984 -0.070736)
 79:   3035.57   0.005177   26.16  0.000532  (-0.008525  0.020784  0.005253)
 80:   3101.43   0.004542   22.95  0.000457  (-0.008315 -0.003998  0.019285)
 81:   3130.79   0.003555   17.97  0.000354  (-0.016231 -0.004562 -0.008373)
 82:   3241.62   0.002206   11.15  0.000212  ( 0.007932 -0.011444 -0.004296)
 83:   3246.51   0.002435   12.31  0.000234  ( 0.001001 -0.013648 -0.006844)
 84:   3257.91   0.008971   45.34  0.000859  ( 0.027371  0.004069  0.009674)
 85:   3784.98   0.002122   10.72  0.000175  ( 0.006707 -0.007132 -0.008894)
 86:   3819.88   0.009620   48.62  0.000786  (-0.015214  0.005513 -0.022892)

--------------------------
THERMOCHEMISTRY AT 298.15K
--------------------------

Temperature         ... 298.15 K
Pressure            ... 1.00 atm
Total Mass          ... 276.18 AMU

Throughout the following assumptions are being made:
  (1) The electronic state is orbitally nondegenerate
  (2) There are no thermally accessible electronically excited states
  (3) Hindered rotations indicated by low frequency modes are not
      treated as such but are treated as vibrations and this may
      cause some error
  (4) All equations used are the standard statistical mechanics
      equations for an ideal gas
  (5) All vibrations are strictly harmonic

freq.      25.62  E(vib)   ...       0.56
freq.      32.62  E(vib)   ...       0.55
freq.      34.19  E(vib)   ...       0.54
freq.      42.52  E(vib)   ...       0.53
freq.      53.80  E(vib)   ...       0.52
freq.      69.43  E(vib)   ...       0.50
freq.      85.42  E(vib)   ...       0.48
freq.      89.49  E(vib)   ...       0.47
freq.     144.83  E(vib)   ...       0.41
freq.     152.54  E(vib)   ...       0.40
freq.     175.13  E(vib)   ...       0.38
freq.     196.46  E(vib)   ...       0.36
freq.     254.08  E(vib)   ...       0.30
freq.     267.11  E(vib)   ...       0.29
freq.     268.28  E(vib)   ...       0.29
freq.     297.51  E(vib)   ...       0.27
freq.     306.09  E(vib)   ...       0.26
freq.     336.84  E(vib)   ...       0.24
freq.     354.82  E(vib)   ...       0.22
freq.     362.63  E(vib)   ...       0.22
freq.     401.37  E(vib)   ...       0.19
freq.     478.04  E(vib)   ...       0.15
freq.     488.88  E(vib)   ...       0.15
freq.     504.02  E(vib)   ...       0.14
freq.     520.94  E(vib)   ...       0.13
freq.     532.34  E(vib)   ...       0.13
freq.     569.05  E(vib)   ...       0.11
freq.     599.51  E(vib)   ...       0.10
freq.     619.54  E(vib)   ...       0.09
freq.     667.80  E(vib)   ...       0.08
freq.     681.10  E(vib)   ...       0.08
freq.     749.50  E(vib)   ...       0.06
freq.     755.67  E(vib)   ...       0.06
freq.     776.71  E(vib)   ...       0.05
freq.     792.42  E(vib)   ...       0.05
freq.     804.35  E(vib)   ...       0.05
freq.     834.69  E(vib)   ...       0.04
freq.     900.39  E(vib)   ...       0.03
freq.     933.90  E(vib)   ...       0.03
freq.     937.67  E(vib)   ...       0.03
freq.     953.37  E(vib)   ...       0.03
freq.     958.30  E(vib)   ...       0.03
freq.     968.19  E(vib)   ...       0.03
freq.     972.37  E(vib)   ...       0.03
freq.    1025.77  E(vib)   ...       0.02
freq.    1069.74  E(vib)   ...       0.02
freq.    1092.20  E(vib)   ...       0.02
freq.    1127.80  E(vib)   ...       0.01
freq.    1140.54  E(vib)   ...       0.01
freq.    1157.05  E(vib)   ...       0.01
freq.    1279.43  E(vib)   ...       0.01
freq.    1286.59  E(vib)   ...       0.01
freq.    1358.00  E(vib)   ...       0.01
freq.    1361.93  E(vib)   ...       0.01
freq.    1374.44  E(vib)   ...       0.01
freq.    1391.54  E(vib)   ...       0.00
freq.    1422.74  E(vib)   ...       0.00
freq.    1441.22  E(vib)   ...       0.00
freq.    1450.66  E(vib)   ...       0.00
freq.    1478.18  E(vib)   ...       0.00
freq.    1483.61  E(vib)   ...       0.00
freq.    1489.06  E(vib)   ...       0.00
freq.    1496.59  E(vib)   ...       0.00
freq.    1550.49  E(vib)   ...       0.00
freq.    1552.12  E(vib)   ...       0.00
freq.    1560.45  E(vib)   ...       0.00
freq.    1624.04  E(vib)   ...       0.00
freq.    1631.80  E(vib)   ...       0.00
freq.    1656.60  E(vib)   ...       0.00
freq.    2877.82  E(vib)   ...       0.00
freq.    3035.57  E(vib)   ...       0.00
freq.    3101.43  E(vib)   ...       0.00
freq.    3130.79  E(vib)   ...       0.00
freq.    3241.62  E(vib)   ...       0.00
freq.    3246.51  E(vib)   ...       0.00
freq.    3257.91  E(vib)   ...       0.00
freq.    3784.98  E(vib)   ...       0.00
freq.    3819.88  E(vib)   ...       0.00

------------
INNER ENERGY
------------

The inner energy is: U= E(el) + E(ZPE) + E(vib) + E(rot) + E(trans)
    E(el)   - is the total energy from the electronic structure calculation
              = E(kin-el) + E(nuc-el) + E(el-el) + E(nuc-nuc)
    E(ZPE)  - the the zero temperature vibrational energy from the frequency calculation
    E(vib)  - the the finite temperature correction to E(ZPE) due to population
              of excited vibrational states
    E(rot)  - is the rotational thermal energy
    E(trans)- is the translational thermal energy

Summary of contributions to the inner energy U:
Electronic energy                ...  -1076.75238333 Eh
Zero point energy                ...      0.19352713 Eh     121.44 kcal/mol
Thermal vibrational correction   ...      0.01562901 Eh       9.81 kcal/mol
Thermal rotational correction    ...      0.00141627 Eh       0.89 kcal/mol
Thermal translational correction ...      0.00141627 Eh       0.89 kcal/mol
-----------------------------------------------------------------------
Total thermal energy                  -1076.54039465 Eh

Summary of corrections to the electronic energy:
(perhaps to be used in another calculation)
Total thermal correction                  0.01846155 Eh      11.58 kcal/mol
Non-thermal (ZPE) correction              0.19352713 Eh     121.44 kcal/mol
-----------------------------------------------------------------------
Total correction                          0.21198868 Eh     133.02 kcal/mol

--------
ENTHALPY
--------

The enthalpy is H = U + kB*T
                kB is Boltzmann's constant
Total free energy                 ...  -1076.54039465 Eh
Thermal Enthalpy correction       ...      0.00094421 Eh       0.59 kcal/mol
-----------------------------------------------------------------------
Total Enthalpy                    ...  -1076.53945044 Eh

Note: Only C1 symmetry has been detected, increase convergence thresholds
      if your molecule has a higher symmetry. Symmetry factor of 1.0 is
      used for the rotational entropy correction.

Note: Rotational entropy computed according to Herzberg
Infrared and Raman Spectra, Chapter V,1, Van Nostrand Reinhold, 1945
Point Group:  C1, Symmetry Number:   1
Rotational constants in cm-1:     0.015107     0.007489     0.005683

Vibrational entropy computed according to the QRRHO of S. Grimme
Chem.Eur.J. 2012 18 9955

-------
ENTROPY
-------

The entropy contributions are T*S = T*(S(el)+S(vib)+S(rot)+S(trans))
     S(el)   - electronic entropy
     S(vib)  - vibrational entropy
     S(rot)  - rotational entropy

                             ****ORCA TERMINATED NORMALLY****
TOTAL RUN TIME: 0 days 0 hours 42 minutes 34 seconds 812 msec
