                         Program Version 5.0.4 -  RELEASE  -
|  1> !  NUMFREQ B3LYP def2-TZVP CPCM D3
|  2> %pal nprocs 102 end
|  3> %cpcm epsilon 78.4 end
|  4> *xyz -1 1
|  5> C   -1.60228834747957 0.47897999035439 -0.26152763630446
|  6> H   -0.37704026936519 1.08296697666949 -0.31464389176868
|  7> N   -1.41269685395788 -0.40648923350226 0.82198910750347
|  8> O   -0.9967214394392 -1.56795543792309 0.61319899318336
|  9> O   -1.57721889199799 0.00244481555988 1.99350399171201
| 10> C   2.59052661320878 -0.94798206258323 0.13660846279247
| 11> O   2.24930315529348 0.11015784227105 0.83939835932633
| 12> O   2.2863092084579 -1.11883848750216 -1.03650415344902
| 13> C   3.3936898799412 -1.94983992655322 0.92787756415296
| 14> H   3.72280783108027 -2.7654752415294 0.28882622798312
| 15> H   2.77527263503175 -2.34647878948449 1.73600966677062
| 16> H   4.25563340713201 -1.46215154013856 1.38549724588675
| 17> C   -2.57045590339191 1.60682781863808 0.03287250703565
| 18> H   -2.26247054995737 2.19463390601801 0.89583284208799
| 19> H   -3.58615661658174 1.23797680233912 0.21801853821287
| 20> H   -2.60714052518496 2.26955778251664 -0.83284267311858
| 21> C   -1.78059767420839 -0.21274874657993 -1.59549382913941
| 22> H   -2.70247746954954 -0.80518012898346 -1.63366043222123
| 23> H   -0.94627093481215 -0.87301200700365 -1.82572389544181
| 24> H   -1.83788464316604 0.54622896421985 -2.37705314070787
| 25> H   1.62066048224758 0.78680287989155 0.2997646324627
| 26> O   0.73755149580137 1.65773124199943 -0.40181130602227
| 27> H   0.62766541089758 2.48184258130593 0.08986281906303
| 28> *
| 29>
| 30>                          ****END OF INPUT****

CARTESIAN COORDINATES (ANGSTROEM)
---------------------------------
  C     -1.602288    0.478980   -0.261528
  H     -0.377040    1.082967   -0.314644
  N     -1.412697   -0.406489    0.821989
  O     -0.996721   -1.567955    0.613199
  O     -1.577219    0.002445    1.993504
  C      2.590527   -0.947982    0.136608
  O      2.249303    0.110158    0.839398
  O      2.286309   -1.118838   -1.036504
  C      3.393690   -1.949840    0.927878
  H      3.722808   -2.765475    0.288826
  H      2.775273   -2.346479    1.736010
  H      4.255633   -1.462152    1.385497
  C     -2.570456    1.606828    0.032873
  H     -2.262471    2.194634    0.895833
  H     -3.586157    1.237977    0.218019
  H     -2.607141    2.269558   -0.832843
  C     -1.780598   -0.212749   -1.595494
  H     -2.702477   -0.805180   -1.633660
  H     -0.946271   -0.873012   -1.825724
  H     -1.837885    0.546229   -2.377053
  H      1.620660    0.786803    0.299765
  O      0.737551    1.657731   -0.401811
  H      0.627665    2.481843    0.089863

 Total Charge           Charge          ....   -1
 Multiplicity           Mult            ....    1
 Number of Electrons    NEL             ....   90
 Basis Dimension        Dim             ....  413

ORBITAL ENERGIES
----------------

  NO   OCC          E(Eh)            E(eV)
   0   2.0000     -19.125557      -520.4329
   1   2.0000     -19.117250      -520.2068
   2   2.0000     -19.116415      -520.1841
   3   2.0000     -19.094296      -519.5822
   4   2.0000     -19.084104      -519.3049
   5   2.0000     -14.504497      -394.6874
   6   2.0000     -10.286349      -279.9058
   7   2.0000     -10.178242      -276.9640
   8   2.0000     -10.161625      -276.5119
   9   2.0000     -10.153104      -276.2800
  10   2.0000     -10.152122      -276.2533
  11   2.0000      -1.178300       -32.0632
  12   2.0000      -1.074142       -29.2289
  13   2.0000      -1.001063       -27.2403
  14   2.0000      -0.987594       -26.8738
  15   2.0000      -0.944648       -25.7052
  16   2.0000      -0.816055       -22.2060
  17   2.0000      -0.734523       -19.9874
  18   2.0000      -0.687440       -18.7062
  19   2.0000      -0.681189       -18.5361
  20   2.0000      -0.581519       -15.8239
  21   2.0000      -0.545777       -14.8513
  22   2.0000      -0.516468       -14.0538
  23   2.0000      -0.487382       -13.2623
  24   2.0000      -0.483658       -13.1610
  25   2.0000      -0.479328       -13.0432
  26   2.0000      -0.460404       -12.5282
  27   2.0000      -0.451980       -12.2990
  28   2.0000      -0.445822       -12.1314
  29   2.0000      -0.417174       -11.3519
  30   2.0000      -0.397348       -10.8124
  31   2.0000      -0.396201       -10.7812
  32   2.0000      -0.385966       -10.5027
  33   2.0000      -0.379905       -10.3377
  34   2.0000      -0.377087       -10.2611
  35   2.0000      -0.374010       -10.1773
  36   2.0000      -0.343173        -9.3382
  37   2.0000      -0.339209        -9.2304
  38   2.0000      -0.301051        -8.1920
  39   2.0000      -0.291203        -7.9240
  40   2.0000      -0.286884        -7.8065
  41   2.0000      -0.281392        -7.6571
  42   2.0000      -0.264417        -7.1952
  43   2.0000      -0.260338        -7.0841
  44   2.0000      -0.209424        -5.6987
  45   0.0000      -0.039246        -1.0679
  46   0.0000       0.020539         0.5589
  47   0.0000       0.043938         1.1956
  48   0.0000       0.059907         1.6302
  49   0.0000       0.076812         2.0902

MULLIKEN ATOMIC CHARGES
-----------------------
   0 C :   -0.129365
   1 H :    0.285069
   2 N :    0.436488
   3 O :   -0.477273
   4 O :   -0.480920
   5 C :    0.351344
   6 O :   -0.456078
   7 O :   -0.468063
   8 C :   -0.349383
   9 H :    0.122040
  10 H :    0.137323
  11 H :    0.136218
  12 C :   -0.346744
  13 H :    0.118270
  14 H :    0.109025
  15 H :    0.117850
  16 C :   -0.340233
  17 H :    0.105855
  18 H :    0.116180
  19 H :    0.115836
  20 H :    0.350601
  21 O :   -0.781674
  22 H :    0.327634
Sum of atomic charges:   -1.0000000

LOEWDIN ATOMIC CHARGES
----------------------
   0 C :   -0.372341
   1 H :    0.178874
   2 N :   -0.045828
   3 O :   -0.169392
   4 O :   -0.177097
   5 C :   -0.574223
   6 O :    0.053171
   7 O :   -0.014887
   8 C :   -0.270190
   9 H :    0.127139
  10 H :    0.138623
  11 H :    0.136059
  12 C :   -0.303471
  13 H :    0.119191
  14 H :    0.119735
  15 H :    0.127715
  16 C :   -0.304328
  17 H :    0.119108
  18 H :    0.118235
  19 H :    0.127384
  20 H :    0.150124
  21 O :   -0.421364
  22 H :    0.137761

  Mayer bond orders larger than 0.100000
B(  0-C ,  1-H ) :   0.4481 B(  0-C ,  2-N ) :   1.0783 B(  0-C , 12-C ) :   0.9415
B(  0-C , 16-C ) :   0.9493 B(  1-H , 21-O ) :   0.4799 B(  2-N ,  3-O ) :   1.4487
B(  2-N ,  4-O ) :   1.4473 B(  3-O ,  4-O ) :   0.1210 B(  5-C ,  6-O ) :   1.3151
B(  5-C ,  7-O ) :   1.9194 B(  5-C ,  8-C ) :   0.9714 B(  6-O , 20-H ) :   0.6291
B(  8-C ,  9-H ) :   0.9766 B(  8-C , 10-H ) :   0.9479 B(  8-C , 11-H ) :   0.9507
B( 12-C , 13-H ) :   0.9701 B( 12-C , 14-H ) :   0.9662 B( 12-C , 15-H ) :   0.9718
B( 16-C , 17-H ) :   0.9619 B( 16-C , 18-H ) :   0.9718 B( 16-C , 19-H ) :   0.9715
B( 20-H , 21-O ) :   0.3135 B( 21-O , 22-H ) :   0.8913

Dispersion correction           -0.030647644
FINAL SINGLE POINT ENERGY      -628.674181758541
Dispersion correction            ... done

DIPOLE MOMENT
-------------
                                X             Y             Z
Electronic contribution:      2.49607      -3.34933       4.02622
Nuclear contribution   :     -2.73503       4.25419      -4.12047
                        -----------------------------------------
Total Dipole Moment    :     -0.23897       0.90486      -0.09425
                        -----------------------------------------
Magnitude (a.u.)       :      0.94061
Magnitude (Debye)      :      2.39085

VIBRATIONAL FREQUENCIES
-----------------------

Scaling factor for frequencies =  1.000000000 (already applied!)

   0:         0.00 cm**-1
   1:         0.00 cm**-1
   2:         0.00 cm**-1
   3:         0.00 cm**-1
   4:         0.00 cm**-1
   5:         0.00 cm**-1
   6:     -1460.15 cm**-1 ***imaginary mode***
   7:       -11.46 cm**-1 ***imaginary mode***
   8:        17.02 cm**-1
   9:        34.07 cm**-1
  10:        61.01 cm**-1
  11:        73.52 cm**-1
  12:        84.14 cm**-1
  13:       107.84 cm**-1
  14:       125.12 cm**-1
  15:       155.33 cm**-1
  16:       175.67 cm**-1
  17:       194.14 cm**-1
  18:       245.51 cm**-1
  19:       309.88 cm**-1
  20:       313.07 cm**-1
  21:       367.86 cm**-1
  22:       439.95 cm**-1
  23:       462.87 cm**-1
  24:       500.79 cm**-1
  25:       562.47 cm**-1
  26:       609.73 cm**-1
  27:       625.73 cm**-1
  28:       646.56 cm**-1
  29:       682.82 cm**-1
  30:       792.17 cm**-1
  31:       848.77 cm**-1
  32:       903.94 cm**-1
  33:       964.01 cm**-1
  34:       968.50 cm**-1
  35:      1014.79 cm**-1
  36:      1028.33 cm**-1
  37:      1063.64 cm**-1
  38:      1104.89 cm**-1
  39:      1166.46 cm**-1
  40:      1211.94 cm**-1
  41:      1237.77 cm**-1
  42:      1311.19 cm**-1
  43:      1353.83 cm**-1
  44:      1386.28 cm**-1
  45:      1389.09 cm**-1
  46:      1395.99 cm**-1
  47:      1409.15 cm**-1
  48:      1441.91 cm**-1
  49:      1450.64 cm**-1
  50:      1461.78 cm**-1
  51:      1467.38 cm**-1
  52:      1475.89 cm**-1
  53:      1477.12 cm**-1
  54:      1491.92 cm**-1
  55:      1547.36 cm**-1
  56:      1558.96 cm**-1
  57:      1656.14 cm**-1
  58:      1963.02 cm**-1
  59:      2998.09 cm**-1
  60:      3001.44 cm**-1
  61:      3045.63 cm**-1
  62:      3075.31 cm**-1
  63:      3079.66 cm**-1
  64:      3103.36 cm**-1
  65:      3113.14 cm**-1
  66:      3114.84 cm**-1
  67:      3144.53 cm**-1
  68:      3783.49 cm**-1

IR SPECTRUM
-----------

 Mode   freq       eps      Int      T**2         TX        TY        TZ
       cm**-1   L/(mol*cm) km/mol    a.u.
----------------------------------------------------------------------------
  8:     17.02   0.001477    7.47  0.027089  (-0.073820  0.122988  0.080708)
  9:     34.07   0.000028    0.14  0.000252  (-0.012765 -0.004663 -0.008197)
 10:     61.01   0.000624    3.15  0.003189  ( 0.045740  0.030154 -0.013708)
 11:     73.52   0.000577    2.92  0.002449  (-0.014333 -0.041735 -0.022400)
 12:     84.14   0.000287    1.45  0.001063  (-0.026013 -0.019470  0.002740)
 13:    107.84   0.001813    9.16  0.005247  (-0.063112 -0.035028  0.006044)
 14:    125.12   0.000491    2.48  0.001224  ( 0.015397  0.022258  0.022162)
 15:    155.33   0.000664    3.36  0.001334  ( 0.013899  0.005438 -0.033333)
 16:    175.67   0.000193    0.98  0.000343  ( 0.013279 -0.005802 -0.011526)
 17:    194.14   0.000098    0.50  0.000158  ( 0.006702 -0.007572 -0.007481)
 18:    245.51   0.014674   74.15  0.018651  ( 0.078823 -0.099420  0.050533)
 19:    309.88   0.035024  177.00  0.035271  (-0.038436  0.180519 -0.034729)
 20:    313.07   0.002106   10.64  0.002099  ( 0.007588 -0.041503  0.017870)
 21:    367.86   0.001186    5.99  0.001006  ( 0.009492 -0.016161  0.025585)
 22:    439.95   0.013628   68.87  0.009666  ( 0.000885 -0.055286  0.081297)
 23:    462.87   0.035849  181.17  0.024169  (-0.034106  0.135414 -0.068330)
 24:    500.79   0.003904   19.73  0.002432  (-0.037286  0.027629 -0.016698)
 25:    562.47   0.002913   14.72  0.001616  ( 0.011384  0.019294  0.033385)
 26:    609.73   0.001170    5.91  0.000599  ( 0.018793  0.014398 -0.006207)
 27:    625.73   0.007634   38.58  0.003807  (-0.060368 -0.010829  0.006760)
 28:    646.56   0.003579   18.09  0.001727  (-0.023182 -0.026435  0.022164)
 29:    682.82   0.017023   86.03  0.007780  (-0.080128  0.022400 -0.029288)
 30:    792.17   0.000941    4.75  0.000371  (-0.017995 -0.002501  0.006367)
 31:    848.77   0.001678    8.48  0.000617  (-0.022556  0.006421 -0.008190)
 32:    903.94   0.004985   25.19  0.001721  ( 0.018111 -0.030808  0.021067)
 33:    964.01   0.001063    5.37  0.000344  (-0.007685  0.013647  0.009932)
 34:    968.50   0.000732    3.70  0.000236  ( 0.013949  0.002793  0.005794)
 35:   1014.79   0.000587    2.97  0.000180  (-0.002534 -0.009154 -0.009501)
 36:   1028.33   0.004228   21.37  0.001283  ( 0.000736 -0.022926 -0.027514)
 37:   1063.64   0.002779   14.04  0.000815  ( 0.021840  0.014736 -0.011010)
 38:   1104.89   0.014964   75.62  0.004226  (-0.044069  0.025301 -0.040548)
 39:   1166.46   0.031667  160.03  0.008472  ( 0.089259 -0.018888  0.012161)
 40:   1211.94   0.015507   78.37  0.003993  ( 0.011959  0.031941 -0.053195)
 41:   1237.77   0.015177   76.70  0.003826  (-0.020211  0.042774  0.039854)
 42:   1311.19   0.132081  667.49  0.031435  (-0.063449  0.161787  0.035134)
 43:   1353.83   0.033147  167.51  0.007640  ( 0.047985 -0.021657  0.069777)
 44:   1386.28   0.054330  274.56  0.012230  (-0.031295  0.084032  0.064725)
 45:   1389.09   0.030863  155.97  0.006933  (-0.038605  0.073671  0.003959)
 46:   1395.99   0.018920   95.62  0.004230  ( 0.012328 -0.059241  0.023833)
 47:   1409.15   0.056341  284.73  0.012477  (-0.035509  0.074890  0.074885)
 48:   1441.91   0.032509  164.29  0.007036  ( 0.050594 -0.033006  0.058195)
 49:   1450.64   0.008478   42.84  0.001824  (-0.006802 -0.013357 -0.039988)
 50:   1461.78   0.003016   15.24  0.000644  (-0.021455 -0.005668  0.012307)
 51:   1467.38   0.000297    1.50  0.000063  ( 0.001304 -0.005042 -0.005999)
 52:   1475.89   0.001975    9.98  0.000418  (-0.000195  0.017444  0.010640)
 53:   1477.12   0.007783   39.33  0.001644  (-0.039602 -0.004710 -0.007334)
 54:   1491.92   0.014021   70.86  0.002933  (-0.014740  0.027089 -0.044516)
 55:   1547.36   0.000955    4.82  0.000193  ( 0.008961  0.003452 -0.010015)
 56:   1558.96   0.001488    7.52  0.000298  ( 0.005461 -0.010153 -0.012845)
 57:   1656.14   0.170387  861.07  0.032106  (-0.037118  0.140328  0.105053)
 58:   1963.02   0.684052  3456.92  0.108744  (-0.194770  0.226969 -0.138903)
 59:   2998.09   0.008107   40.97  0.000844  ( 0.004050  0.018934  0.021655)
 60:   3001.44   0.018420   93.09  0.001915  (-0.041832  0.003943 -0.012233)
 61:   3045.63   0.000578    2.92  0.000059  ( 0.003435 -0.004252  0.005417)
 62:   3075.31   0.001517    7.66  0.000154  ( 0.006709 -0.001254 -0.010359)
 63:   3079.66   0.012847   64.92  0.001302  ( 0.017208  0.026512 -0.017400)
 64:   3103.36   0.001525    7.71  0.000153  ( 0.011436  0.004330 -0.001945)
 65:   3113.14   0.005434   27.46  0.000545  (-0.003712  0.013959  0.018332)
 66:   3114.84   0.005394   27.26  0.000540  (-0.015695  0.012136 -0.012117)
 67:   3144.53   0.003417   17.27  0.000339  ( 0.003564 -0.013571 -0.011926)
 68:   3783.49   0.008625   43.59  0.000711  ( 0.004328  0.025318  0.007189)

--------------------------
THERMOCHEMISTRY AT 298.15K
--------------------------

Temperature         ... 298.15 K
Pressure            ... 1.00 atm
Total Mass          ... 166.15 AMU

Throughout the following assumptions are being made:
  (1) The electronic state is orbitally nondegenerate
  (2) There are no thermally accessible electronically excited states
  (3) Hindered rotations indicated by low frequency modes are not
      treated as such but are treated as vibrations and this may
      cause some error
  (4) All equations used are the standard statistical mechanics
      equations for an ideal gas
  (5) All vibrations are strictly harmonic

freq.      17.02  E(vib)   ...       0.57
freq.      34.07  E(vib)   ...       0.55
freq.      61.01  E(vib)   ...       0.51
freq.      73.52  E(vib)   ...       0.49
freq.      84.14  E(vib)   ...       0.48
freq.     107.84  E(vib)   ...       0.45
freq.     125.12  E(vib)   ...       0.43
freq.     155.33  E(vib)   ...       0.40
freq.     175.67  E(vib)   ...       0.38
freq.     194.14  E(vib)   ...       0.36
freq.     245.51  E(vib)   ...       0.31
freq.     309.88  E(vib)   ...       0.26
freq.     313.07  E(vib)   ...       0.25
freq.     367.86  E(vib)   ...       0.21
freq.     439.95  E(vib)   ...       0.17
freq.     462.87  E(vib)   ...       0.16
freq.     500.79  E(vib)   ...       0.14
freq.     562.47  E(vib)   ...       0.11
freq.     609.73  E(vib)   ...       0.10
freq.     625.73  E(vib)   ...       0.09
freq.     646.56  E(vib)   ...       0.09
freq.     682.82  E(vib)   ...       0.08
freq.     792.17  E(vib)   ...       0.05
freq.     848.77  E(vib)   ...       0.04
freq.     903.94  E(vib)   ...       0.03
freq.     964.01  E(vib)   ...       0.03
freq.     968.50  E(vib)   ...       0.03
freq.    1014.79  E(vib)   ...       0.02
freq.    1028.33  E(vib)   ...       0.02
freq.    1063.64  E(vib)   ...       0.02
freq.    1104.89  E(vib)   ...       0.02
freq.    1166.46  E(vib)   ...       0.01
freq.    1211.94  E(vib)   ...       0.01
freq.    1237.77  E(vib)   ...       0.01
freq.    1311.19  E(vib)   ...       0.01
freq.    1353.83  E(vib)   ...       0.01
freq.    1386.28  E(vib)   ...       0.00
freq.    1389.09  E(vib)   ...       0.00
freq.    1395.99  E(vib)   ...       0.00
freq.    1409.15  E(vib)   ...       0.00
freq.    1441.91  E(vib)   ...       0.00
freq.    1450.64  E(vib)   ...       0.00
freq.    1461.78  E(vib)   ...       0.00
freq.    1467.38  E(vib)   ...       0.00
freq.    1475.89  E(vib)   ...       0.00
freq.    1477.12  E(vib)   ...       0.00
freq.    1491.92  E(vib)   ...       0.00
freq.    1547.36  E(vib)   ...       0.00
freq.    1558.96  E(vib)   ...       0.00
freq.    1656.14  E(vib)   ...       0.00
freq.    1963.02  E(vib)   ...       0.00
freq.    2998.09  E(vib)   ...       0.00
freq.    3001.44  E(vib)   ...       0.00
freq.    3045.63  E(vib)   ...       0.00
freq.    3075.31  E(vib)   ...       0.00
freq.    3079.66  E(vib)   ...       0.00
freq.    3103.36  E(vib)   ...       0.00
freq.    3113.14  E(vib)   ...       0.00
freq.    3114.84  E(vib)   ...       0.00
freq.    3144.53  E(vib)   ...       0.00
freq.    3783.49  E(vib)   ...       0.00

------------
INNER ENERGY
------------

The inner energy is: U= E(el) + E(ZPE) + E(vib) + E(rot) + E(trans)
    E(el)   - is the total energy from the electronic structure calculation
              = E(kin-el) + E(nuc-el) + E(el-el) + E(nuc-nuc)
    E(ZPE)  - the the zero temperature vibrational energy from the frequency calculation
    E(vib)  - the the finite temperature correction to E(ZPE) due to population
              of excited vibrational states
    E(rot)  - is the rotational thermal energy
    E(trans)- is the translational thermal energy

Summary of contributions to the inner energy U:
Electronic energy                ...   -628.67418176 Eh
Zero point energy                ...      0.17267932 Eh     108.36 kcal/mol
Thermal vibrational correction   ...      0.01103955 Eh       6.93 kcal/mol
Thermal rotational correction    ...      0.00141627 Eh       0.89 kcal/mol
Thermal translational correction ...      0.00141627 Eh       0.89 kcal/mol
-----------------------------------------------------------------------
Total thermal energy                   -628.48763035 Eh

Summary of corrections to the electronic energy:
(perhaps to be used in another calculation)
Total thermal correction                  0.01387209 Eh       8.70 kcal/mol
Non-thermal (ZPE) correction              0.17267932 Eh     108.36 kcal/mol
-----------------------------------------------------------------------
Total correction                          0.18655141 Eh     117.06 kcal/mol

--------
ENTHALPY
--------

The enthalpy is H = U + kB*T
                kB is Boltzmann's constant
Total free energy                 ...   -628.48763035 Eh
Thermal Enthalpy correction       ...      0.00094421 Eh       0.59 kcal/mol
-----------------------------------------------------------------------
Total Enthalpy                    ...   -628.48668614 Eh

Note: Only C1 symmetry has been detected, increase convergence thresholds
      if your molecule has a higher symmetry. Symmetry factor of 1.0 is
      used for the rotational entropy correction.

Note: Rotational entropy computed according to Herzberg
Infrared and Raman Spectra, Chapter V,1, Van Nostrand Reinhold, 1945
Point Group:  C1, Symmetry Number:   1
Rotational constants in cm-1:     0.050744     0.018694     0.017705

Vibrational entropy computed according to the QRRHO of S. Grimme
Chem.Eur.J. 2012 18 9955

-------
ENTROPY
-------

The entropy contributions are T*S = T*(S(el)+S(vib)+S(rot)+S(trans))
     S(el)   - electronic entropy
     S(vib)  - vibrational entropy
     S(rot)  - rotational entropy
     S(trans)- translational entropy
The entropies will be listed as multiplied by the temperature to get
units of energy

Electronic entropy                ...      0.00000000 Eh      0.00 kcal/mol
Vibrational entropy               ...      0.02048004 Eh     12.85 kcal/mol
Rotational entropy                ...      0.01470117 Eh      9.23 kcal/mol
Translational entropy             ...      0.01959034 Eh     12.29 kcal/mol
-----------------------------------------------------------------------
Final entropy term                ...      0.05477155 Eh     34.37 kcal/mol

In case the symmetry of your molecule has not been determined correctly
or in case you have a reason to use a different symmetry number we print
out the resulting rotational entropy values for sn=1,12 :
 --------------------------------------------------------
|  sn= 1 | S(rot)=       0.01470117 Eh      9.23 kcal/mol|
|  sn= 2 | S(rot)=       0.01404672 Eh      8.81 kcal/mol|

                             ****ORCA TERMINATED NORMALLY****
TOTAL RUN TIME: 0 days 0 hours 13 minutes 56 seconds 778 msec
