                         Program Version 5.0.4 -  RELEASE  -
|  1> !  NUMFREQ B3LYP def2-TZVP CPCM D3
|  2> %pal nprocs 102 end
|  3> %cpcm epsilon 78.4 end
|  4> *xyz 0 1
|  5> C   -2.88713784779296 1.49341042856727 -0.12818430668032
|  6> H   -2.24843421332541 1.85710167599494 -0.93155646667585
|  7> N   -1.85169183058806 -0.72952349090272 -0.1294353766209
|  8> O   -1.65131451785669 -0.5865675036724 -1.35559001285016
|  9> O   -1.61365014354756 -1.82974666464259 0.42295876274797
| 10> H   -3.08329573335866 0.92252702133326 2.53039343213586
| 11> C   -2.2292617073707 0.37851625600954 0.65597001896322
| 12> H   -0.98105550725575 0.83865838500076 0.9908590169927 M = 2
| 13> H   -3.84028060354559 1.1801649976627 -0.56985842730479
| 14> C   -2.88310073714213 0.00798272253027 1.97077751615724
| 15> H   -3.83622510957202 -0.51278885493113 1.82376815135073
| 16> C   2.8884992831793 0.70345907974867 -0.66311706056157
| 17> C   3.78499799092626 0.07121603060711 -1.50239223163684
| 18> C   3.55969021141451 -1.25865984742168 -1.84218602715692
| 19> C   2.4456395606611 -1.91845830727106 -1.33560612744289
| 20> C   1.58521606327797 -1.23185733913873 -0.50038978834767
| 21> N   1.82291042558996 0.04813369093161 -0.18683764842733
| 22> H   4.64068099953356 0.61188574475283 -1.88012972754201
| 23> H   4.24695699211955 -1.77656784038995 -2.49803908106325
| 24> H   2.24201568401384 -2.95030610839497 -1.58277714666159
| 25> H   -3.08752010294713 2.3249063977824 0.54857971434479
| 26> H   -2.2417035180461 -0.62789301003723 2.57851917838011
| 27> H   0.69456195810936 -1.67411348741254 -0.07491011883953
| 28> H   2.99497020121991 1.73398001639061 -0.35458074119306
| 29> H   0.27144987409546 1.05619452305505 2.22665403008156
| 30> H   1.10574865777187 0.58626136599003 0.49179359250203
| 31> O   0.1513336704361 1.28208411785795 1.29531687534846
| 32> *
| 33>
| 34>                          ****END OF INPUT****

CARTESIAN COORDINATES (ANGSTROEM)
---------------------------------
  C     -2.887138    1.493410   -0.128184
  H     -2.248434    1.857102   -0.931556
  N     -1.851692   -0.729523   -0.129435
  O     -1.651315   -0.586568   -1.355590
  O     -1.613650   -1.829747    0.422959
  H     -3.083296    0.922527    2.530393
  C     -2.229262    0.378516    0.655970
  H     -0.981056    0.838658    0.990859
  H     -3.840281    1.180165   -0.569858
  C     -2.883101    0.007983    1.970778
  H     -3.836225   -0.512789    1.823768
  C      2.888499    0.703459   -0.663117
  C      3.784998    0.071216   -1.502392
  C      3.559690   -1.258660   -1.842186
  C      2.445640   -1.918458   -1.335606
  C      1.585216   -1.231857   -0.500390
  N      1.822910    0.048134   -0.186838
  H      4.640681    0.611886   -1.880130
  H      4.246957   -1.776568   -2.498039
  H      2.242016   -2.950306   -1.582777
  H     -3.087520    2.324906    0.548580
  H     -2.241704   -0.627893    2.578519
  H      0.694562   -1.674113   -0.074910
  H      2.994970    1.733980   -0.354581
  H      0.271450    1.056195    2.226654
  H      1.105749    0.586261    0.491794
  O      0.151334    1.282084    1.295317

 Total Charge           Charge          ....    0
 Multiplicity           Mult            ....    1
 Number of Electrons    NEL             ....  100
 Basis Dimension        Dim             ....  487

ORBITAL ENERGIES
----------------

  NO   OCC          E(Eh)            E(eV)
   0   2.0000     -19.121382      -520.3193
   1   2.0000     -19.120894      -520.3060
   2   2.0000     -19.091411      -519.5037
   3   2.0000     -14.507880      -394.7795
   4   2.0000     -14.388246      -391.5241
   5   2.0000     -10.243368      -278.7362
   6   2.0000     -10.240999      -278.6718
   7   2.0000     -10.214358      -277.9468
   8   2.0000     -10.204146      -277.6689
   9   2.0000     -10.203490      -277.6511
  10   2.0000     -10.182353      -277.0759
  11   2.0000     -10.155180      -276.3365
  12   2.0000     -10.154806      -276.3263
  13   2.0000      -1.182311       -32.1723
  14   2.0000      -1.007204       -27.4074
  15   2.0000      -1.004848       -27.3433
  16   2.0000      -0.953092       -25.9349
  17   2.0000      -0.837411       -22.7871
  18   2.0000      -0.820025       -22.3140
  19   2.0000      -0.800032       -21.7700
  20   2.0000      -0.690914       -18.8007
  21   2.0000      -0.683843       -18.6083
  22   2.0000      -0.669084       -18.2067
  23   2.0000      -0.665154       -18.0998
  24   2.0000      -0.586927       -15.9711
  25   2.0000      -0.550025       -14.9670
  26   2.0000      -0.521878       -14.2010
  27   2.0000      -0.518453       -14.1078
  28   2.0000      -0.506309       -13.7774
  29   2.0000      -0.491508       -13.3746
  30   2.0000      -0.487162       -13.2564
  31   2.0000      -0.483864       -13.1666
  32   2.0000      -0.461086       -12.5468
  33   2.0000      -0.451162       -12.2767
  34   2.0000      -0.446038       -12.1373
  35   2.0000      -0.416219       -11.3259
  36   2.0000      -0.399384       -10.8678
  37   2.0000      -0.394644       -10.7388
  38   2.0000      -0.392512       -10.6808
  39   2.0000      -0.385396       -10.4872
  40   2.0000      -0.382262       -10.4019
  41   2.0000      -0.353242        -9.6122
  42   2.0000      -0.345911        -9.4127
  43   2.0000      -0.326335        -8.8800
  44   2.0000      -0.298044        -8.1102
  45   2.0000      -0.295184        -8.0324
  46   2.0000      -0.291177        -7.9233
  47   2.0000      -0.288909        -7.8616
  48   2.0000      -0.264325        -7.1926
  49   2.0000      -0.213883        -5.8200
  50   0.0000      -0.070554        -1.9199
  51   0.0000      -0.044649        -1.2150
  52   0.0000      -0.041417        -1.1270
  53   0.0000       0.038796         1.0557
  54   0.0000       0.057897         1.5755

MULLIKEN ATOMIC CHARGES
-----------------------
   0 C :   -0.336824
   1 H :    0.118207
   2 N :    0.439907
   3 O :   -0.472077
   4 O :   -0.480993
   5 H :    0.119411
   6 C :   -0.124211
   7 H :    0.294846
   8 H :    0.109623
   9 C :   -0.343459
  10 H :    0.111122
  11 C :    0.003744
  12 C :   -0.118652
  13 C :   -0.088596
  14 C :   -0.122908
  15 C :    0.007444
  16 N :   -0.112855
  17 H :    0.176362
  18 H :    0.176401
  19 H :    0.175557
  20 H :    0.117304
  21 H :    0.117989
  22 H :    0.179917
  23 H :    0.190235
  24 H :    0.336906
  25 H :    0.305600
  26 O :   -0.779999
Sum of atomic charges:   -0.0000000

LOEWDIN ATOMIC CHARGES
----------------------
   0 C :   -0.301565
   1 H :    0.120429
   2 N :   -0.044519
   3 O :   -0.163813
   4 O :   -0.170983
   5 H :    0.128388
   6 C :   -0.369450
   7 H :    0.181168
   8 H :    0.120499
   9 C :   -0.301771
  10 H :    0.120800
  11 C :   -0.122155
  12 C :   -0.108284
  13 C :   -0.066901
  14 C :   -0.108321
  15 C :   -0.128864
  16 N :    0.247284
  17 H :    0.164534
  18 H :    0.164566
  19 H :    0.164543
  20 H :    0.128083
  21 H :    0.119762
  22 H :    0.152266
  23 H :    0.161041
  24 H :    0.142467
  25 H :    0.182204
  26 O :   -0.411407

  Mayer bond orders larger than 0.100000
B(  0-C ,  1-H ) :   0.9711 B(  0-C ,  6-C ) :   0.9546 B(  0-C ,  8-H ) :   0.9626
B(  0-C , 20-H ) :   0.9709 B(  2-N ,  3-O ) :   1.4321 B(  2-N ,  4-O ) :   1.4080
B(  2-N ,  6-C ) :   1.0795 B(  3-O ,  4-O ) :   0.1173 B(  5-H ,  9-C ) :   0.9710
B(  6-C ,  7-H ) :   0.4419 B(  6-C ,  9-C ) :   0.9459 B(  7-H , 26-O ) :   0.4819
B(  9-C , 10-H ) :   0.9657 B(  9-C , 21-H ) :   0.9693 B( 11-C , 12-C ) :   1.4489
B( 11-C , 16-N ) :   1.3315 B( 11-C , 23-H ) :   0.9377 B( 12-C , 13-C ) :   1.4034
B( 12-C , 17-H ) :   0.9513 B( 13-C , 14-C ) :   1.4061 B( 13-C , 18-H ) :   0.9471
B( 14-C , 15-C ) :   1.4468 B( 14-C , 19-H ) :   0.9535 B( 15-C , 16-N ) :   1.3125
B( 15-C , 22-H ) :   0.9175 B( 16-N , 25-H ) :   0.6381 B( 24-H , 26-O ) :   0.8866
B( 25-H , 26-O ) :   0.3220

Dispersion correction           -0.043539001
FINAL SINGLE POINT ENERGY      -648.295760046110
Dispersion correction            ... done

DIPOLE MOMENT
-------------
                                X             Y             Z
Electronic contribution:      7.69355      -5.03628      -4.54844
Nuclear contribution   :     -3.42495       5.44519       4.42857
                        -----------------------------------------
Total Dipole Moment    :      4.26860       0.40891      -0.11988
                        -----------------------------------------
Magnitude (a.u.)       :      4.28982
Magnitude (Debye)      :     10.90385

VIBRATIONAL FREQUENCIES
-----------------------

Scaling factor for frequencies =  1.000000000 (already applied!)

   0:         0.00 cm**-1
   1:         0.00 cm**-1
   2:         0.00 cm**-1
   3:         0.00 cm**-1
   4:         0.00 cm**-1
   5:         0.00 cm**-1
   6:     -1135.65 cm**-1 ***imaginary mode***
   7:        24.12 cm**-1
   8:        31.76 cm**-1
   9:        61.24 cm**-1
  10:        71.42 cm**-1
  11:        84.67 cm**-1
  12:       101.76 cm**-1
  13:       108.20 cm**-1
  14:       143.88 cm**-1
  15:       170.89 cm**-1
  16:       187.45 cm**-1
  17:       240.40 cm**-1
  18:       296.97 cm**-1
  19:       312.49 cm**-1
  20:       373.05 cm**-1
  21:       388.28 cm**-1
  22:       407.89 cm**-1
  23:       437.86 cm**-1
  24:       504.97 cm**-1
  25:       560.44 cm**-1
  26:       602.66 cm**-1
  27:       633.09 cm**-1
  28:       645.73 cm**-1
  29:       659.71 cm**-1
  30:       706.52 cm**-1
  31:       776.33 cm**-1
  32:       786.67 cm**-1
  33:       841.11 cm**-1
  34:       897.77 cm**-1
  35:       936.71 cm**-1
  36:       968.23 cm**-1
  37:       980.54 cm**-1
  38:       986.61 cm**-1
  39:       988.48 cm**-1
  40:      1018.41 cm**-1
  41:      1020.33 cm**-1
  42:      1046.31 cm**-1
  43:      1048.15 cm**-1
  44:      1088.35 cm**-1
  45:      1093.61 cm**-1
  46:      1114.26 cm**-1
  47:      1158.83 cm**-1
  48:      1179.07 cm**-1
  49:      1224.62 cm**-1
  50:      1229.56 cm**-1
  51:      1262.65 cm**-1
  52:      1303.86 cm**-1
  53:      1362.98 cm**-1
  54:      1364.62 cm**-1
  55:      1376.98 cm**-1
  56:      1387.69 cm**-1
  57:      1408.27 cm**-1
  58:      1434.11 cm**-1
  59:      1445.91 cm**-1
  60:      1467.47 cm**-1
  61:      1476.58 cm**-1
  62:      1477.23 cm**-1
  63:      1491.21 cm**-1
  64:      1524.39 cm**-1
  65:      1598.38 cm**-1
  66:      1646.35 cm**-1
  67:      1689.85 cm**-1
  68:      1758.40 cm**-1
  69:      3001.90 cm**-1
  70:      3004.59 cm**-1
  71:      3077.73 cm**-1
  72:      3081.56 cm**-1
  73:      3112.26 cm**-1
  74:      3115.09 cm**-1
  75:      3196.69 cm**-1
  76:      3201.77 cm**-1
  77:      3212.99 cm**-1
  78:      3219.40 cm**-1
  79:      3223.55 cm**-1
  80:      3784.77 cm**-1

IR SPECTRUM
-----------

 Mode   freq       eps      Int      T**2         TX        TY        TZ
       cm**-1   L/(mol*cm) km/mol    a.u.
----------------------------------------------------------------------------
  7:     24.12   0.000426    2.16  0.005517  ( 0.064972 -0.006896  0.035326)
  8:     31.76   0.001386    7.00  0.013620  ( 0.012290 -0.058806  0.100056)
  9:     61.24   0.002219   11.22  0.011309  ( 0.102948  0.023551 -0.012481)
 10:     71.42   0.003322   16.79  0.014515  (-0.094801 -0.068874 -0.028001)
 11:     84.67   0.000304    1.53  0.001119  (-0.003647 -0.005112 -0.032863)
 12:    101.76   0.001630    8.23  0.004997  (-0.007589 -0.036140 -0.060278)
 13:    108.20   0.000547    2.77  0.001579  (-0.038593 -0.008535 -0.004073)
 14:    143.88   0.000329    1.66  0.000713  (-0.019538 -0.010485 -0.014892)
 15:    170.89   0.000127    0.64  0.000232  ( 0.005728  0.012066 -0.007290)
 16:    187.45   0.000088    0.45  0.000147  ( 0.004988  0.001816  0.010909)
 17:    240.40   0.026534  134.09  0.034445  (-0.106987  0.106401  0.108060)
 18:    296.97   0.040230  203.30  0.042274  ( 0.071662 -0.125050 -0.146633)
 19:    312.49   0.000336    1.70  0.000336  ( 0.001702 -0.007217  0.016765)
 20:    373.05   0.000905    4.57  0.000757  (-0.017418  0.017253  0.012474)
 21:    388.28   0.013792   69.70  0.011085  ( 0.016849 -0.097522 -0.035925)
 22:    407.89   0.000684    3.46  0.000524  ( 0.012061 -0.017630 -0.008206)
 23:    437.86   0.009372   47.36  0.006679  (-0.014242 -0.069698 -0.040231)
 24:    504.97   0.006219   31.43  0.003843  (-0.053785  0.016048  0.026316)
 25:    560.44   0.003287   16.61  0.001830  ( 0.024124 -0.024236  0.025712)
 26:    602.66   0.035894  181.39  0.018586  (-0.050122  0.083500  0.095404)
 27:    633.09   0.014201   71.77  0.007000  ( 0.080168  0.021962 -0.009533)
 28:    645.73   0.009364   47.32  0.004526  ( 0.053358 -0.019249 -0.036166)
 29:    659.71   0.000340    1.72  0.000161  ( 0.009769 -0.007364 -0.003320)
 30:    706.52   0.020637  104.29  0.009115  ( 0.057072 -0.028598  0.070995)
 31:    776.33   0.013792   69.70  0.005544  ( 0.045048 -0.024962  0.053773)
 32:    786.67   0.001538    7.77  0.000610  ( 0.022273 -0.010502  0.001936)
 33:    841.11   0.001953    9.87  0.000724  ( 0.017240 -0.016194 -0.012846)
 34:    897.77   0.000093    0.47  0.000032  (-0.004900  0.002608 -0.001202)
 35:    936.71   0.002466   12.46  0.000822  (-0.026825 -0.005191  0.008668)
 36:    968.23   0.001185    5.99  0.000382  ( 0.000283  0.011889 -0.015504)
 37:    980.54   0.005787   29.25  0.001842  ( 0.032453 -0.026823 -0.008316)
 38:    986.61   0.044952  227.17  0.014218  (-0.055978  0.059665  0.086747)
 39:    988.48   0.013182   66.62  0.004162  ( 0.043850 -0.032887 -0.034016)
 40:   1018.41   0.000813    4.11  0.000249  ( 0.011714 -0.009525  0.004608)
 41:   1020.33   0.000286    1.45  0.000088  (-0.007127  0.005239 -0.003045)
 42:   1046.31   0.000241    1.22  0.000072  ( 0.003257  0.003531  0.006985)
 43:   1048.15   0.000020    0.10  0.000006  (-0.002087  0.001023  0.000660)
 44:   1088.35   0.000153    0.77  0.000044  (-0.002345 -0.004854  0.003834)
 45:   1093.61   0.001797    9.08  0.000513  ( 0.009218  0.019744 -0.006160)
 46:   1114.26   0.026510  133.97  0.007425  ( 0.048009 -0.062696 -0.034480)
 47:   1158.83   0.012042   60.86  0.003243  ( 0.033011  0.007329 -0.045820)
 48:   1179.07   0.001124    5.68  0.000298  (-0.008980 -0.014720 -0.000494)
 49:   1224.62   0.005471   27.65  0.001394  (-0.023634  0.023103  0.017372)
 50:   1229.56   0.011881   60.04  0.003015  (-0.021432  0.047961  0.015990)
 51:   1262.65   0.009921   50.14  0.002452  (-0.005520  0.021844 -0.044095)
 52:   1303.86   0.003020   15.26  0.000723  (-0.018633 -0.018608  0.005423)
 53:   1362.98   0.048567  245.44  0.011120  (-0.056974  0.087493  0.014784)
 54:   1364.62   0.012922   65.30  0.002955  (-0.018629 -0.026851 -0.043440)
 55:   1376.98   0.003922   19.82  0.000889  (-0.013576 -0.006503  0.025736)
 56:   1387.69   0.066858  337.87  0.015035  ( 0.003032 -0.061772  0.105878)
 57:   1408.27   0.039364  198.93  0.008723  ( 0.008760 -0.054248  0.075520)
 58:   1434.11   0.022920  115.83  0.004987  (-0.037572  0.039523  0.044874)
 59:   1445.91   0.004820   24.36  0.001040  ( 0.013393  0.029322 -0.001069)
 60:   1467.47   0.000441    2.23  0.000094  (-0.000042 -0.006608  0.007078)
 61:   1476.58   0.003186   16.10  0.000673  (-0.018851 -0.012848  0.012368)
 62:   1477.23   0.003662   18.51  0.000774  ( 0.025590 -0.004318  0.010010)
 63:   1491.21   0.008382   42.36  0.001754  ( 0.010497 -0.032307 -0.024499)
 64:   1524.39   0.041912  211.80  0.008580  (-0.062077  0.037890  0.057365)
 65:   1598.38   0.002822   14.26  0.000551  (-0.019390 -0.010187  0.008433)
 66:   1646.35   0.100563  508.20  0.019062  ( 0.093038 -0.056942 -0.084636)
 67:   1689.85   0.020690  104.56  0.003821  (-0.051179 -0.026097  0.022812)
 68:   1758.40   0.831668  4202.91  0.147596  ( 0.252962 -0.173376 -0.231403)
 69:   3001.90   0.007508   37.94  0.000781  (-0.012128  0.015317 -0.019971)
 70:   3004.59   0.018474   93.36  0.001919  ( 0.042973  0.000521 -0.008468)
 71:   3077.73   0.001052    5.32  0.000107  ( 0.001687  0.007071 -0.007337)
 72:   3081.56   0.011985   60.57  0.001214  (-0.015613 -0.025447 -0.017956)
 73:   3112.26   0.005350   27.04  0.000536  ( 0.006548  0.006541 -0.021231)
 74:   3115.09   0.005412   27.35  0.000542  (-0.015892  0.017005  0.000674)
 75:   3196.69   0.002087   10.54  0.000204  (-0.012848  0.002539  0.005673)
 76:   3201.77   0.005345   27.01  0.000521  ( 0.022298  0.001105 -0.004748)
 77:   3212.99   0.000234    1.18  0.000023  (-0.003683  0.002383  0.001861)
 78:   3219.40   0.000398    2.01  0.000039  (-0.006110  0.000256  0.001093)
 79:   3223.55   0.000054    0.27  0.000005  (-0.001924  0.000944  0.000820)
 80:   3784.77   0.012438   62.85  0.001026  ( 0.007712  0.001944  0.031020)

--------------------------
THERMOCHEMISTRY AT 298.15K
--------------------------

Temperature         ... 298.15 K
Pressure            ... 1.00 atm
Total Mass          ... 187.20 AMU

Throughout the following assumptions are being made:
  (1) The electronic state is orbitally nondegenerate
  (2) There are no thermally accessible electronically excited states
  (3) Hindered rotations indicated by low frequency modes are not
      treated as such but are treated as vibrations and this may
      cause some error
  (4) All equations used are the standard statistical mechanics
      equations for an ideal gas
  (5) All vibrations are strictly harmonic

freq.      24.12  E(vib)   ...       0.56
freq.      31.76  E(vib)   ...       0.55
freq.      61.24  E(vib)   ...       0.51
freq.      71.42  E(vib)   ...       0.50
freq.      84.67  E(vib)   ...       0.48
freq.     101.76  E(vib)   ...       0.46
freq.     108.20  E(vib)   ...       0.45
freq.     143.88  E(vib)   ...       0.41
freq.     170.89  E(vib)   ...       0.38
freq.     187.45  E(vib)   ...       0.36
freq.     240.40  E(vib)   ...       0.31
freq.     296.97  E(vib)   ...       0.27
freq.     312.49  E(vib)   ...       0.25
freq.     373.05  E(vib)   ...       0.21
freq.     388.28  E(vib)   ...       0.20
freq.     407.89  E(vib)   ...       0.19
freq.     437.86  E(vib)   ...       0.17
freq.     504.97  E(vib)   ...       0.14
freq.     560.44  E(vib)   ...       0.11
freq.     602.66  E(vib)   ...       0.10
freq.     633.09  E(vib)   ...       0.09
freq.     645.73  E(vib)   ...       0.09
freq.     659.71  E(vib)   ...       0.08
freq.     706.52  E(vib)   ...       0.07
freq.     776.33  E(vib)   ...       0.05
freq.     786.67  E(vib)   ...       0.05
freq.     841.11  E(vib)   ...       0.04
freq.     897.77  E(vib)   ...       0.03
freq.     936.71  E(vib)   ...       0.03
freq.     968.23  E(vib)   ...       0.03
freq.     980.54  E(vib)   ...       0.02
freq.     986.61  E(vib)   ...       0.02
freq.     988.48  E(vib)   ...       0.02
freq.    1018.41  E(vib)   ...       0.02
freq.    1020.33  E(vib)   ...       0.02
freq.    1046.31  E(vib)   ...       0.02
freq.    1048.15  E(vib)   ...       0.02
freq.    1088.35  E(vib)   ...       0.02
freq.    1093.61  E(vib)   ...       0.02
freq.    1114.26  E(vib)   ...       0.01
freq.    1158.83  E(vib)   ...       0.01
freq.    1179.07  E(vib)   ...       0.01
freq.    1224.62  E(vib)   ...       0.01
freq.    1229.56  E(vib)   ...       0.01
freq.    1262.65  E(vib)   ...       0.01
freq.    1303.86  E(vib)   ...       0.01
freq.    1362.98  E(vib)   ...       0.01
freq.    1364.62  E(vib)   ...       0.01
freq.    1376.98  E(vib)   ...       0.01
freq.    1387.69  E(vib)   ...       0.00
freq.    1408.27  E(vib)   ...       0.00
freq.    1434.11  E(vib)   ...       0.00
freq.    1445.91  E(vib)   ...       0.00
freq.    1467.47  E(vib)   ...       0.00
freq.    1476.58  E(vib)   ...       0.00
freq.    1477.23  E(vib)   ...       0.00
freq.    1491.21  E(vib)   ...       0.00
freq.    1524.39  E(vib)   ...       0.00
freq.    1598.38  E(vib)   ...       0.00
freq.    1646.35  E(vib)   ...       0.00
freq.    1689.85  E(vib)   ...       0.00
freq.    1758.40  E(vib)   ...       0.00
freq.    3001.90  E(vib)   ...       0.00
freq.    3004.59  E(vib)   ...       0.00
freq.    3077.73  E(vib)   ...       0.00
freq.    3081.56  E(vib)   ...       0.00
freq.    3112.26  E(vib)   ...       0.00
freq.    3115.09  E(vib)   ...       0.00
freq.    3196.69  E(vib)   ...       0.00
freq.    3201.77  E(vib)   ...       0.00
freq.    3212.99  E(vib)   ...       0.00
freq.    3219.40  E(vib)   ...       0.00
freq.    3223.55  E(vib)   ...       0.00
freq.    3784.77  E(vib)   ...       0.00

------------
INNER ENERGY
------------

The inner energy is: U= E(el) + E(ZPE) + E(vib) + E(rot) + E(trans)
    E(el)   - is the total energy from the electronic structure calculation
              = E(kin-el) + E(nuc-el) + E(el-el) + E(nuc-nuc)
    E(ZPE)  - the the zero temperature vibrational energy from the frequency calculation
    E(vib)  - the the finite temperature correction to E(ZPE) due to population
              of excited vibrational states
    E(rot)  - is the rotational thermal energy
    E(trans)- is the translational thermal energy

Summary of contributions to the inner energy U:
Electronic energy                ...   -648.29576005 Eh
Zero point energy                ...      0.21152468 Eh     132.73 kcal/mol
Thermal vibrational correction   ...      0.01194869 Eh       7.50 kcal/mol
Thermal rotational correction    ...      0.00141627 Eh       0.89 kcal/mol
Thermal translational correction ...      0.00141627 Eh       0.89 kcal/mol
-----------------------------------------------------------------------
Total thermal energy                   -648.06945414 Eh

Summary of corrections to the electronic energy:
(perhaps to be used in another calculation)
Total thermal correction                  0.01478123 Eh       9.28 kcal/mol
Non-thermal (ZPE) correction              0.21152468 Eh     132.73 kcal/mol
-----------------------------------------------------------------------
Total correction                          0.22630590 Eh     142.01 kcal/mol

--------
ENTHALPY
--------

The enthalpy is H = U + kB*T
                kB is Boltzmann's constant
Total free energy                 ...   -648.06945414 Eh
Thermal Enthalpy correction       ...      0.00094421 Eh       0.59 kcal/mol
-----------------------------------------------------------------------
Total Enthalpy                    ...   -648.06850993 Eh

Note: Only C1 symmetry has been detected, increase convergence thresholds
      if your molecule has a higher symmetry. Symmetry factor of 1.0 is
      used for the rotational entropy correction.

Note: Rotational entropy computed according to Herzberg
Infrared and Raman Spectra, Chapter V,1, Van Nostrand Reinhold, 1945
Point Group:  C1, Symmetry Number:   1
Rotational constants in cm-1:     0.047835     0.012866     0.011681

Vibrational entropy computed according to the QRRHO of S. Grimme
Chem.Eur.J. 2012 18 9955

-------
ENTROPY
-------

The entropy contributions are T*S = T*(S(el)+S(vib)+S(rot)+S(trans))
     S(el)   - electronic entropy
     S(vib)  - vibrational entropy
     S(rot)  - rotational entropy
     S(trans)- translational entropy
The entropies will be listed as multiplied by the temperature to get
units of energy

                             ****ORCA TERMINATED NORMALLY****
TOTAL RUN TIME: 0 days 0 hours 21 minutes 43 seconds 259 msec
