                         Program Version 5.0.4 -  RELEASE  -
|  1> !  NUMFREQ B3LYP def2-TZVP CPCM D3
|  2> %pal nprocs 102 end
|  3> %cpcm epsilon 78.4 end
|  4> *xyz 0 1
|  5> C   0.39051965611373 -0.76551645804682 0.63503398403169
|  6> H   0.91334167570778 -1.51525809718587 0.04821741496773
|  7> H   0.83985357542309 0.21290414648087 0.47563860612739
|  8> H   0.34708718233337 -1.01849229141798 1.68708380908029 M = 2
|  9> N   -1.00476539283747 -0.6836641149698 0.11122947468867
| 10> O   -1.92635342787765 -0.71541595607687 0.91094442619998
| 11> O   -1.14739999671018 -0.57493671941865 -1.09663954543951
| 12> H   3.42996929667795 -1.67929680295339 1.02758713137234
| 13> O   3.51224527561341 -1.1564877848353 1.83495481981332
| 14> H   3.43165051555595 -0.24149759157617 1.53752772915809
| 15> *
| 16>
| 17>                          ****END OF INPUT****

CARTESIAN COORDINATES (ANGSTROEM)
---------------------------------
  C      0.390520   -0.765516    0.635034
  H      0.913342   -1.515258    0.048217
  H      0.839854    0.212904    0.475639
  H      0.347087   -1.018492    1.687084
  N     -1.004765   -0.683664    0.111229
  O     -1.926353   -0.715416    0.910944
  O     -1.147400   -0.574937   -1.096640
  H      3.429969   -1.679297    1.027587
  O      3.512245   -1.156488    1.834955
  H      3.431651   -0.241498    1.537528

 Total Charge           Charge          ....    0
 Multiplicity           Mult            ....    1
 Number of Electrons    NEL             ....   42
 Basis Dimension        Dim             ....  185

ORBITAL ENERGIES
----------------

  NO   OCC          E(Eh)            E(eV)
   0   2.0000     -19.171934      -521.6949
   1   2.0000     -19.170233      -521.6486
   2   2.0000     -19.124409      -520.4016
   3   2.0000     -14.559119      -396.1738
   4   2.0000     -10.220536      -278.1149
   5   2.0000      -1.243128       -33.8272
   6   2.0000      -1.069225       -29.0951
   7   2.0000      -1.007978       -27.4285
   8   2.0000      -0.813040       -22.1239
   9   2.0000      -0.624713       -16.9993
  10   2.0000      -0.555670       -15.1206
  11   2.0000      -0.544750       -14.8234
  12   2.0000      -0.534350       -14.5404
  13   2.0000      -0.525260       -14.2931
  14   2.0000      -0.439427       -11.9574
  15   2.0000      -0.421726       -11.4758
  16   2.0000      -0.392741       -10.6870
  17   2.0000      -0.332183        -9.0392
  18   2.0000      -0.326130        -8.8745
  19   2.0000      -0.315465        -8.5842
  20   2.0000      -0.309442        -8.4203
  21   0.0000      -0.081552        -2.2192
  22   0.0000       0.023641         0.6433
  23   0.0000       0.069520         1.8917
  24   0.0000       0.096114         2.6154
  25   0.0000       0.115819         3.1516

MULLIKEN ATOMIC CHARGES
-----------------------
   0 C :   -0.272704
   1 H :    0.173675
   2 H :    0.179143
   3 H :    0.164651
   4 N :    0.430191
   5 O :   -0.348130
   6 O :   -0.346949
   7 H :    0.360873
   8 O :   -0.701650
   9 H :    0.360899
Sum of atomic charges:    0.0000000

LOEWDIN ATOMIC CHARGES
----------------------
   0 C :   -0.242726
   1 H :    0.137927
   2 H :    0.142869
   3 H :    0.130290
   4 N :   -0.067703
   5 O :   -0.057732
   6 O :   -0.061305
   7 H :    0.172954
   8 O :   -0.327900
   9 H :    0.173328

  Mayer bond orders larger than 0.100000
B(  0-C ,  1-H ) :   0.9436 B(  0-C ,  2-H ) :   0.9376 B(  0-C ,  3-H ) :   0.9537
B(  0-C ,  4-N ) :   0.8745 B(  4-N ,  5-O ) :   1.6230 B(  4-N ,  6-O ) :   1.6084
B(  5-O ,  6-O ) :   0.2101 B(  7-H ,  8-O ) :   0.8807 B(  8-O ,  9-H ) :   0.8806

Dispersion correction           -0.007802071
FINAL SINGLE POINT ENERGY      -321.457544108648
Dispersion correction            ... done

DIPOLE MOMENT
-------------
                                X             Y             Z
Electronic contribution:     -6.18328       0.27323      -1.16657
Nuclear contribution   :      7.75061      -0.06178       0.92699
                        -----------------------------------------
Total Dipole Moment    :      1.56733       0.21145      -0.23957
                        -----------------------------------------
Magnitude (a.u.)       :      1.59957
Magnitude (Debye)      :      4.06578

VIBRATIONAL FREQUENCIES
-----------------------

Scaling factor for frequencies =  1.000000000 (already applied!)

   0:         0.00 cm**-1
   1:         0.00 cm**-1
   2:         0.00 cm**-1
   3:         0.00 cm**-1
   4:         0.00 cm**-1
   5:         0.00 cm**-1
   6:       -63.36 cm**-1 ***imaginary mode***
   7:       -41.63 cm**-1 ***imaginary mode***
   8:        12.15 cm**-1
   9:        37.08 cm**-1
  10:        64.05 cm**-1
  11:       196.48 cm**-1
  12:       242.64 cm**-1
  13:       460.19 cm**-1
  14:       615.94 cm**-1
  15:       648.85 cm**-1
  16:       906.54 cm**-1
  17:       949.57 cm**-1
  18:      1077.13 cm**-1
  19:      1290.57 cm**-1
  20:      1316.77 cm**-1
  21:      1405.82 cm**-1
  22:      1440.45 cm**-1
  23:      1559.39 cm**-1
  24:      1599.34 cm**-1
  25:      2342.26 cm**-1
  26:      3111.95 cm**-1
  27:      3171.99 cm**-1
  28:      3763.74 cm**-1
  29:      3845.90 cm**-1

IR SPECTRUM
-----------

 Mode   freq       eps      Int      T**2         TX        TY        TZ
       cm**-1   L/(mol*cm) km/mol    a.u.
----------------------------------------------------------------------------
  8:     12.15   0.001834    9.27  0.047108  (-0.104580 -0.121889  0.145995)
  9:     37.08   0.003139   15.86  0.026414  (-0.066355  0.127547  0.075783)
 10:     64.05   0.002542   12.85  0.012385  (-0.108764 -0.023429 -0.002443)
 11:    196.48   0.010211   51.60  0.016217  ( 0.094864  0.083326  0.016586)
 12:    242.64   0.074278  375.37  0.095530  ( 0.306243  0.000108 -0.041773)
 13:    460.19   0.000180    0.91  0.000122  ( 0.003701 -0.000259 -0.010401)
 14:    615.94   0.001169    5.91  0.000592  (-0.009406 -0.022010 -0.004380)
 15:    648.85   0.006386   32.27  0.003071  (-0.048266  0.008708 -0.025807)
 16:    906.54   0.003359   16.98  0.001156  (-0.031899  0.000334  0.011774)
 17:    949.57   0.003180   16.07  0.001045  ( 0.011473 -0.000290  0.030224)
 18:   1077.13   0.001678    8.48  0.000486  ( 0.005948  0.021196  0.001190)
 19:   1290.57   0.001796    9.08  0.000434  ( 0.003930  0.017144  0.011179)
 20:   1316.77   0.001073    5.42  0.000254  ( 0.012446 -0.007415 -0.006665)
 21:   1405.82   0.023719  119.86  0.005265  (-0.069113 -0.004443  0.021649)
 22:   1440.45   0.021727  109.80  0.004707  (-0.040867  0.008361 -0.054470)
 23:   1559.39   0.129641  655.15  0.025944  ( 0.057792  0.010361 -0.149988)
 24:   1599.34   0.024212  122.36  0.004724  (-0.012506  0.023103 -0.063515)
 25:   2342.26   0.000115    0.58  0.000015  (-0.003291  0.000559 -0.002043)
 26:   3111.95   0.000274    1.38  0.000027  ( 0.004926  0.001416  0.001088)
 27:   3171.99   0.000100    0.51  0.000010  (-0.001542 -0.002544 -0.001012)
 28:   3763.74   0.004640   23.45  0.000385  ( 0.000575 -0.007320  0.018188)
 29:   3845.90   0.021584  109.08  0.001751  (-0.000203 -0.039367 -0.014200)

--------------------------
THERMOCHEMISTRY AT 298.15K
--------------------------

Temperature         ... 298.15 K
Pressure            ... 1.00 atm
Total Mass          ... 80.05 AMU

Throughout the following assumptions are being made:
  (1) The electronic state is orbitally nondegenerate
  (2) There are no thermally accessible electronically excited states
  (3) Hindered rotations indicated by low frequency modes are not
      treated as such but are treated as vibrations and this may
      cause some error
  (4) All equations used are the standard statistical mechanics
      equations for an ideal gas
  (5) All vibrations are strictly harmonic

freq.      12.15  E(vib)   ...       0.58
freq.      37.08  E(vib)   ...       0.54
freq.      64.05  E(vib)   ...       0.51
freq.     196.48  E(vib)   ...       0.36
freq.     242.64  E(vib)   ...       0.31
freq.     460.19  E(vib)   ...       0.16
freq.     615.94  E(vib)   ...       0.10
freq.     648.85  E(vib)   ...       0.08
freq.     906.54  E(vib)   ...       0.03
freq.     949.57  E(vib)   ...       0.03
freq.    1077.13  E(vib)   ...       0.02
freq.    1290.57  E(vib)   ...       0.01
freq.    1316.77  E(vib)   ...       0.01
freq.    1405.82  E(vib)   ...       0.00
freq.    1440.45  E(vib)   ...       0.00
freq.    1559.39  E(vib)   ...       0.00
freq.    1599.34  E(vib)   ...       0.00
freq.    2342.26  E(vib)   ...       0.00
freq.    3111.95  E(vib)   ...       0.00
freq.    3171.99  E(vib)   ...       0.00
freq.    3763.74  E(vib)   ...       0.00
freq.    3845.90  E(vib)   ...       0.00

------------
INNER ENERGY
------------

The inner energy is: U= E(el) + E(ZPE) + E(vib) + E(rot) + E(trans)
    E(el)   - is the total energy from the electronic structure calculation
              = E(kin-el) + E(nuc-el) + E(el-el) + E(nuc-nuc)
    E(ZPE)  - the the zero temperature vibrational energy from the frequency calculation
    E(vib)  - the the finite temperature correction to E(ZPE) due to population
              of excited vibrational states
    E(rot)  - is the rotational thermal energy
    E(trans)- is the translational thermal energy

Summary of contributions to the inner energy U:
Electronic energy                ...   -321.45754411 Eh
Zero point energy                ...      0.06847902 Eh      42.97 kcal/mol
Thermal vibrational correction   ...      0.00435728 Eh       2.73 kcal/mol
Thermal rotational correction    ...      0.00141627 Eh       0.89 kcal/mol
Thermal translational correction ...      0.00141627 Eh       0.89 kcal/mol
-----------------------------------------------------------------------
Total thermal energy                   -321.38187527 Eh

Summary of corrections to the electronic energy:
(perhaps to be used in another calculation)
Total thermal correction                  0.00718982 Eh       4.51 kcal/mol
Non-thermal (ZPE) correction              0.06847902 Eh      42.97 kcal/mol
-----------------------------------------------------------------------
Total correction                          0.07566884 Eh      47.48 kcal/mol

--------
ENTHALPY
--------

The enthalpy is H = U + kB*T
                kB is Boltzmann's constant
Total free energy                 ...   -321.38187527 Eh
Thermal Enthalpy correction       ...      0.00094421 Eh       0.59 kcal/mol
-----------------------------------------------------------------------
Total Enthalpy                    ...   -321.38093106 Eh

Note: Only C1 symmetry has been detected, increase convergence thresholds
      if your molecule has a higher symmetry. Symmetry factor of 1.0 is
      used for the rotational entropy correction.

Note: Rotational entropy computed according to Herzberg
Infrared and Raman Spectra, Chapter V,1, Van Nostrand Reinhold, 1945
Point Group:  C1, Symmetry Number:   1
Rotational constants in cm-1:     0.389897     0.046465     0.042098

Vibrational entropy computed according to the QRRHO of S. Grimme
Chem.Eur.J. 2012 18 9955

-------
ENTROPY
-------

The entropy contributions are T*S = T*(S(el)+S(vib)+S(rot)+S(trans))
     S(el)   - electronic entropy
     S(vib)  - vibrational entropy
     S(rot)  - rotational entropy
     S(trans)- translational entropy
The entropies will be listed as multiplied by the temperature to get
units of energy

Electronic entropy                ...      0.00000000 Eh      0.00 kcal/mol
Vibrational entropy               ...      0.00865149 Eh      5.43 kcal/mol
Rotational entropy                ...      0.01289980 Eh      8.09 kcal/mol
Translational entropy             ...      0.01855604 Eh     11.64 kcal/mol
-----------------------------------------------------------------------
Final entropy term                ...      0.04010734 Eh     25.17 kcal/mol

In case the symmetry of your molecule has not been determined correctly
or in case you have a reason to use a different symmetry number we print
out the resulting rotational entropy values for sn=1,12 :
 --------------------------------------------------------
|  sn= 1 | S(rot)=       0.01289980 Eh      8.09 kcal/mol|
|  sn= 2 | S(rot)=       0.01224535 Eh      7.68 kcal/mol|
|  sn= 3 | S(rot)=       0.01186252 Eh      7.44 kcal/mol|
|  sn= 4 | S(rot)=       0.01159089 Eh      7.27 kcal/mol|
|  sn= 5 | S(rot)=       0.01138020 Eh      7.14 kcal/mol|
|  sn= 6 | S(rot)=       0.01120806 Eh      7.03 kcal/mol|
|  sn= 7 | S(rot)=       0.01106251 Eh      6.94 kcal/mol|
|  sn= 8 | S(rot)=       0.01093644 Eh      6.86 kcal/mol|
|  sn= 9 | S(rot)=       0.01082523 Eh      6.79 kcal/mol|
|  sn=10 | S(rot)=       0.01072575 Eh      6.73 kcal/mol|
|  sn=11 | S(rot)=       0.01063576 Eh      6.67 kcal/mol|
|  sn=12 | S(rot)=       0.01055360 Eh      6.62 kcal/mol|
 --------------------------------------------------------

-------------------
GIBBS FREE ENERGY
-------------------

The Gibbs free energy is G = H - T*S

Total enthalpy                    ...   -321.38093106 Eh
Total entropy correction          ...     -0.04010734 Eh    -25.17 kcal/mol
-----------------------------------------------------------------------
Final Gibbs free energy         ...   -321.42103840 Eh

For completeness - the Gibbs free energy minus the electronic energy
G-E(el)                           ...      0.03650571 Eh     22.91 kcal/mol

                             ****ORCA TERMINATED NORMALLY****
TOTAL RUN TIME: 0 days 0 hours 1 minutes 32 seconds 559 msec
