                         Program Version 5.0.4 -  RELEASE  -
|  1> !  NUMFREQ B3LYP def2-TZVP CPCM D3
|  2> %pal nprocs 102 end
|  3> %cpcm epsilon 78.4 end
|  4> *xyz 0 1
|  5> C   -1.60748908712598 2.46889832920335 0.98802391584727
|  6> C   -1.67987565934061 1.08289920424795 1.03116613436651
|  7> C   -1.8932348185783 0.33686909310954 -0.13252861975857
|  8> C   -2.03964705377618 1.01827809865819 -1.34282939597987
|  9> C   -1.95254777281134 2.401720048918 -1.36684632529432
| 10> C   -1.73652551564142 3.14870330857121 -0.21784144324809
| 11> H   -1.43336275215403 3.02756275732301 1.89870063634978
| 12> H   -1.55417777833461 0.57092811380634 1.97552620092019
| 13> H   -2.20798409404026 0.48211028051299 -2.26456074791487
| 14> Cl   -2.12388407403339 3.23072251263014 -2.9049759270442
| 15> H   -1.66770072087373 4.22637449772795 -0.26499357124809
| 16> C   -1.99904053574139 -1.15439287683306 -0.00408194013424
| 17> C   -3.2457724841428 -1.64583031573057 0.70691524295441
| 18> H   -3.16211309419585 -2.69992777712148 0.96728384475086
| 19> H   -4.14349308026949 -1.51010068964111 0.09700681107758
| 20> H   -3.36942799055206 -1.07567960745826 1.62681112376122
| 21> N   -1.70629706955887 -1.88644274099001 -1.20138252039261
| 22> O   -2.31413690852922 -2.93574408510913 -1.44085039447453
| 23> O   -0.7647961667504 -1.5123590855646 -1.93393454281903
| 24> N   1.50916377215414 -0.42837258527161 -0.43681421704396
| 25> C   2.72999754054064 -1.20748985199217 -0.7831155505831
| 26> C   3.7642956749896 -1.0239575561753 0.31264352168934
| 27> O   4.06566005129725 0.35462199341257 0.51172017362325
| 28> C   2.90219664173447 1.08370226237817 0.89545700737474
| 29> C   1.82622121897604 1.0014679791383 -0.17065094640235
| 30> H   0.91523991509053 1.49795597399701 0.15752821876983
| 31> H   2.1682377676628 1.45257035777485 -1.10228774713146
| 32> H   3.20449314998996 2.1201001103475 1.03533080744022
| 33> H   2.51897867400429 0.69523615817212 1.84720411472545
| 34> H   4.6924094574218 -1.51784902969684 0.02987631325688
| 35> H   3.40106026142544 -1.46319176211355 1.25008981654872
| 36> H   3.10853431537283 -0.84457088311794 -1.73867939408761
| 37> H   -0.96062867706775 -1.46819425676418 0.73616136487078 M = 2
| 38> H   0.81518758442757 -0.50992314171444 -1.18716492346984
| 39> H   2.4465544749962 -2.25461077445992 -0.8801326123771
| 40> H   0.34175929572576 -2.55392405721955 1.42916007525286
| 41> H   1.01068444522306 -0.8987346129888 0.42311961221424
| 42> O   0.14146109248531 -1.60942538996667 1.4539458836097
| 43> *
| 44>
| 45>                          ****END OF INPUT****

CARTESIAN COORDINATES (ANGSTROEM)
---------------------------------
  C     -1.607489    2.468898    0.988024
  C     -1.679876    1.082899    1.031166
  C     -1.893235    0.336869   -0.132529
  C     -2.039647    1.018278   -1.342829
  C     -1.952548    2.401720   -1.366846
  C     -1.736526    3.148703   -0.217841
  H     -1.433363    3.027563    1.898701
  H     -1.554178    0.570928    1.975526
  H     -2.207984    0.482110   -2.264561
  Cl    -2.123884    3.230723   -2.904976
  H     -1.667701    4.226374   -0.264994
  C     -1.999041   -1.154393   -0.004082
  C     -3.245772   -1.645830    0.706915
  H     -3.162113   -2.699928    0.967284
  H     -4.143493   -1.510101    0.097007
  H     -3.369428   -1.075680    1.626811
  N     -1.706297   -1.886443   -1.201383
  O     -2.314137   -2.935744   -1.440850
  O     -0.764796   -1.512359   -1.933935
  N      1.509164   -0.428373   -0.436814
  C      2.729998   -1.207490   -0.783116
  C      3.764296   -1.023958    0.312644
  O      4.065660    0.354622    0.511720
  C      2.902197    1.083702    0.895457
  C      1.826221    1.001468   -0.170651
  H      0.915240    1.497956    0.157528
  H      2.168238    1.452570   -1.102288
  H      3.204493    2.120100    1.035331
  H      2.518979    0.695236    1.847204
  H      4.692409   -1.517849    0.029876
  H      3.401060   -1.463192    1.250090
  H      3.108534   -0.844571   -1.738679
  H     -0.960629   -1.468194    0.736161
  H      0.815188   -0.509923   -1.187165
  H      2.446554   -2.254611   -0.880133
  H      0.341759   -2.553924    1.429160
  H      1.010684   -0.898735    0.423120
  O      0.141461   -1.609425    1.453946

 Total Charge           Charge          ....    0
 Multiplicity           Mult            ....    1
 Number of Electrons    NEL             ....  154
 Basis Dimension        Dim             ....  709

ORBITAL ENERGIES
----------------

  NO   OCC          E(Eh)            E(eV)
   0   2.0000    -101.527449     -2762.7023
   1   2.0000     -19.142726      -520.9001
   2   2.0000     -19.140015      -520.8263
   3   2.0000     -19.139787      -520.8201
   4   2.0000     -19.075563      -519.0725
   5   2.0000     -14.528503      -395.3407
   6   2.0000     -14.385916      -391.4607
   7   2.0000     -10.236227      -278.5419
   8   2.0000     -10.223686      -278.2006
   9   2.0000     -10.223254      -278.1889
  10   2.0000     -10.215377      -277.9745
  11   2.0000     -10.213872      -277.9336
  12   2.0000     -10.200268      -277.5634
  13   2.0000     -10.197183      -277.4794
  14   2.0000     -10.182948      -277.0921
  15   2.0000     -10.182214      -277.0721
  16   2.0000     -10.181228      -277.0453
  17   2.0000     -10.175991      -276.9028
  18   2.0000     -10.161367      -276.5049
  19   2.0000      -9.459602      -257.4089
  20   2.0000      -7.220878      -196.4901
  21   2.0000      -7.212809      -196.2705
  22   2.0000      -7.212502      -196.2622
  23   2.0000      -1.206275       -32.8244
  24   2.0000      -1.050339       -28.5812
  25   2.0000      -1.029385       -28.0110
  26   2.0000      -0.973031       -26.4775
  27   2.0000      -0.930842       -25.3295
  28   2.0000      -0.895348       -24.3637
  29   2.0000      -0.852265       -23.1913
  30   2.0000      -0.818149       -22.2630
  31   2.0000      -0.790334       -21.5061
  32   2.0000      -0.752540       -20.4776
  33   2.0000      -0.736233       -20.0339
  34   2.0000      -0.718491       -19.5511
  35   2.0000      -0.696240       -18.9457
  36   2.0000      -0.670293       -18.2396
  37   2.0000      -0.629944       -17.1416
  38   2.0000      -0.606174       -16.4948
  39   2.0000      -0.605476       -16.4758
  40   2.0000      -0.573758       -15.6128
  41   2.0000      -0.553800       -15.0697
  42   2.0000      -0.534917       -14.5558
  43   2.0000      -0.531263       -14.4564
  44   2.0000      -0.517880       -14.0922
  45   2.0000      -0.507589       -13.8122
  46   2.0000      -0.496655       -13.5147
  47   2.0000      -0.490148       -13.3376
  48   2.0000      -0.479762       -13.0550
  49   2.0000      -0.475929       -12.9507
  50   2.0000      -0.469070       -12.7640
  51   2.0000      -0.457254       -12.4425
  52   2.0000      -0.449351       -12.2275
  53   2.0000      -0.440426       -11.9846
  54   2.0000      -0.429944       -11.6994
  55   2.0000      -0.416472       -11.3328
  56   2.0000      -0.415276       -11.3002
  57   2.0000      -0.409858       -11.1528
  58   2.0000      -0.396959       -10.8018
  59   2.0000      -0.391275       -10.6471
  60   2.0000      -0.388985       -10.5848
  61   2.0000      -0.380376       -10.3506
  62   2.0000      -0.371365       -10.1054
  63   2.0000      -0.368570       -10.0293
  64   2.0000      -0.361051        -9.8247
  65   2.0000      -0.349955        -9.5228
  66   2.0000      -0.335993        -9.1428
  67   2.0000      -0.326030        -8.8717
  68   2.0000      -0.318236        -8.6596
  69   2.0000      -0.309901        -8.4328
  70   2.0000      -0.307213        -8.3597
  71   2.0000      -0.287410        -7.8208
  72   2.0000      -0.278322        -7.5735
  73   2.0000      -0.270722        -7.3667
  74   2.0000      -0.267667        -7.2836
  75   2.0000      -0.252723        -6.8769
  76   2.0000      -0.219445        -5.9714
  77   0.0000      -0.063987        -1.7412
  78   0.0000      -0.022115        -0.6018
  79   0.0000      -0.018147        -0.4938
  80   0.0000       0.023587         0.6418
  81   0.0000       0.035076         0.9545

MULLIKEN ATOMIC CHARGES
-----------------------
   0 C :   -0.118104
   1 C :   -0.222844
   2 C :    0.148882
   3 C :   -0.254650
   4 C :    0.223566
   5 C :   -0.215306
   6 H :    0.145298
   7 H :    0.126915
   8 H :    0.134740
   9 Cl:   -0.145729
  10 H :    0.147614
  11 C :   -0.155818
  12 C :   -0.362280
  13 H :    0.123822
  14 H :    0.119350
  15 H :    0.131814
  16 N :    0.470448
  17 O :   -0.414427
  18 O :   -0.466445
  19 N :   -0.157728
  20 C :   -0.130424
  21 C :   -0.063300
  22 O :   -0.358690
  23 C :   -0.059255
  24 C :   -0.126540
  25 H :    0.164539
  26 H :    0.141337
  27 H :    0.140201
  28 H :    0.118715
  29 H :    0.141402
  30 H :    0.116631
  31 H :    0.142965
  32 H :    0.269914
  33 H :    0.292798
  34 H :    0.151596
  35 H :    0.323189
  36 H :    0.305679
  37 O :   -0.829872
Sum of atomic charges:    0.0000000

LOEWDIN ATOMIC CHARGES
----------------------
   0 C :   -0.135906
   1 C :   -0.111411
   2 C :   -0.138251
   3 C :   -0.116798
   4 C :   -0.415522
   5 C :   -0.151473
   6 H :    0.153952
   7 H :    0.154624
   8 H :    0.153674
   9 Cl:    0.351800
  10 H :    0.152457
  11 C :   -0.283518
  12 C :   -0.282173
  13 H :    0.123789
  14 H :    0.123996
  15 H :    0.132287
  16 N :   -0.031191
  17 O :   -0.104118
  18 O :   -0.133827
  19 N :    0.185337
  20 C :   -0.242904
  21 C :   -0.305862
  22 O :    0.132792
  23 C :   -0.303657
  24 C :   -0.242807
  25 H :    0.150418
  26 H :    0.145184
  27 H :    0.140519
  28 H :    0.129810
  29 H :    0.140395
  30 H :    0.128948
  31 H :    0.145321
  32 H :    0.187410
  33 H :    0.200044
  34 H :    0.148805
  35 H :    0.128739
  36 H :    0.183273
  37 O :   -0.494158

  Mayer bond orders larger than 0.100000
B(  0-C ,  1-C ) :   1.4005 B(  0-C ,  5-C ) :   1.3683 B(  0-C ,  6-H ) :   0.9791
B(  1-C ,  2-C ) :   1.3220 B(  1-C ,  7-H ) :   0.9758 B(  2-C ,  3-C ) :   1.3288
B(  2-C , 11-C ) :   0.9064 B(  3-C ,  4-C ) :   1.3657 B(  3-C ,  8-H ) :   0.9772
B(  4-C ,  5-C ) :   1.3396 B(  4-C ,  9-Cl) :   0.9121 B(  5-C , 10-H ) :   0.9761
B( 11-C , 12-C ) :   0.9419 B( 11-C , 16-N ) :   1.0346 B( 11-C , 32-H ) :   0.4954
B( 11-C , 37-O ) :  -0.1003 B( 12-C , 13-H ) :   0.9686 B( 12-C , 14-H ) :   0.9726
B( 12-C , 15-H ) :   0.9686 B( 16-N , 17-O ) :   1.5238 B( 16-N , 18-O ) :   1.3906
B( 17-O , 18-O ) :   0.1394 B( 19-N , 20-C ) :   0.9042 B( 19-N , 24-C ) :   0.9118
B( 19-N , 33-H ) :   0.8659 B( 19-N , 36-H ) :   0.7073 B( 20-C , 21-C ) :   0.9903
B( 20-C , 31-H ) :   0.9526 B( 20-C , 34-H ) :   0.9516 B( 21-C , 22-O ) :   0.9803
B( 21-C , 29-H ) :   0.9591 B( 21-C , 30-H ) :   0.9691 B( 22-O , 23-C ) :   0.9780
B( 23-C , 24-C ) :   0.9842 B( 23-C , 27-H ) :   0.9592 B( 23-C , 28-H ) :   0.9722
B( 24-C , 25-H ) :   0.9480 B( 24-C , 26-H ) :   0.9520 B( 32-H , 37-O ) :   0.4567
B( 35-H , 37-O ) :   0.8952 B( 36-H , 37-O ) :   0.2563

Dispersion correction           -0.079196991
FINAL SINGLE POINT ENERGY     -1339.097234910910
Dispersion correction            ... done

DIPOLE MOMENT
-------------
                                X             Y             Z
Electronic contribution:    -13.10236      10.88128     -15.41651
Nuclear contribution   :     15.61504      -9.72967      16.47990
                        -----------------------------------------
Total Dipole Moment    :      2.51268       1.15161       1.06340
                        -----------------------------------------
Magnitude (a.u.)       :      2.96152
Magnitude (Debye)      :      7.52758

VIBRATIONAL FREQUENCIES
-----------------------

Scaling factor for frequencies =  1.000000000 (already applied!)

   0:         0.00 cm**-1
   1:         0.00 cm**-1
   2:         0.00 cm**-1
   3:         0.00 cm**-1
   4:         0.00 cm**-1
   5:         0.00 cm**-1
   6:      -870.77 cm**-1 ***imaginary mode***
   7:        14.70 cm**-1
   8:        32.18 cm**-1
   9:        49.69 cm**-1
  10:        56.85 cm**-1
  11:        72.30 cm**-1
  12:        82.15 cm**-1
  13:        93.09 cm**-1
  14:       109.85 cm**-1
  15:       111.23 cm**-1
  16:       120.30 cm**-1
  17:       169.84 cm**-1
  18:       193.37 cm**-1
  19:       226.03 cm**-1
  20:       246.01 cm**-1
  21:       264.06 cm**-1
  22:       273.47 cm**-1
  23:       287.97 cm**-1
  24:       309.01 cm**-1
  25:       343.87 cm**-1
  26:       378.14 cm**-1
  27:       386.07 cm**-1
  28:       421.31 cm**-1
  29:       432.36 cm**-1
  30:       436.63 cm**-1
  31:       452.51 cm**-1
  32:       464.42 cm**-1
  33:       486.33 cm**-1
  34:       535.14 cm**-1
  35:       569.25 cm**-1
  36:       595.68 cm**-1
  37:       618.87 cm**-1
  38:       625.21 cm**-1
  39:       666.82 cm**-1
  40:       712.55 cm**-1
  41:       728.82 cm**-1
  42:       789.42 cm**-1
  43:       801.51 cm**-1
  44:       834.99 cm**-1
  45:       845.87 cm**-1
  46:       853.05 cm**-1
  47:       884.03 cm**-1
  48:       892.42 cm**-1
  49:       905.40 cm**-1
  50:       923.98 cm**-1
  51:       932.61 cm**-1
  52:       944.65 cm**-1
  53:       976.74 cm**-1
  54:       996.54 cm**-1
  55:      1021.03 cm**-1
  56:      1029.56 cm**-1
  57:      1064.42 cm**-1
  58:      1074.12 cm**-1
  59:      1081.77 cm**-1
  60:      1098.52 cm**-1
  61:      1101.65 cm**-1
  62:      1106.17 cm**-1
  63:      1108.54 cm**-1
  64:      1116.07 cm**-1
  65:      1147.93 cm**-1
  66:      1174.22 cm**-1
  67:      1189.85 cm**-1
  68:      1192.44 cm**-1
  69:      1226.92 cm**-1
  70:      1254.75 cm**-1
  71:      1284.89 cm**-1
  72:      1305.79 cm**-1
  73:      1316.94 cm**-1
  74:      1331.62 cm**-1
  75:      1342.70 cm**-1
  76:      1344.62 cm**-1
  77:      1354.65 cm**-1
  78:      1383.15 cm**-1
  79:      1408.23 cm**-1
  80:      1411.78 cm**-1
  81:      1422.43 cm**-1
  82:      1436.98 cm**-1
  83:      1460.87 cm**-1
  84:      1470.54 cm**-1
  85:      1479.64 cm**-1
  86:      1481.44 cm**-1
  87:      1483.62 cm**-1
  88:      1487.60 cm**-1
  89:      1489.29 cm**-1
  90:      1497.97 cm**-1
  91:      1511.21 cm**-1
  92:      1599.77 cm**-1
  93:      1606.82 cm**-1
  94:      1631.97 cm**-1
  95:      1694.66 cm**-1
  96:      2155.20 cm**-1
  97:      3000.98 cm**-1
  98:      3003.50 cm**-1
  99:      3025.56 cm**-1
 100:      3076.84 cm**-1
 101:      3079.24 cm**-1
 102:      3096.39 cm**-1
 103:      3113.49 cm**-1
 104:      3114.96 cm**-1
 105:      3123.68 cm**-1
 106:      3132.30 cm**-1
 107:      3139.07 cm**-1
 108:      3180.62 cm**-1
 109:      3196.33 cm**-1
 110:      3207.23 cm**-1
 111:      3214.18 cm**-1
 112:      3362.62 cm**-1
 113:      3780.85 cm**-1

IR SPECTRUM
-----------

 Mode   freq       eps      Int      T**2         TX        TY        TZ
       cm**-1   L/(mol*cm) km/mol    a.u.
----------------------------------------------------------------------------
  7:     14.70   0.000099    0.50  0.002109  ( 0.025425  0.018838  0.033282)
  8:     32.18   0.001249    6.31  0.012108  (-0.070592  0.084242  0.005254)
  9:     49.69   0.000624    3.15  0.003920  ( 0.052095  0.029722 -0.017959)
 10:     56.85   0.001406    7.11  0.007718  ( 0.011998  0.086812 -0.006166)
 11:     72.30   0.000913    4.61  0.003939  (-0.048578  0.001341 -0.039712)
 12:     82.15   0.002838   14.34  0.010783  ( 0.096413  0.001101  0.038552)
 13:     93.09   0.000154    0.78  0.000516  (-0.020083  0.010147 -0.003116)
 14:    109.85   0.001654    8.36  0.004698  ( 0.003004 -0.065329  0.020522)
 15:    111.23   0.002651   13.40  0.007438  (-0.004329 -0.082796  0.023756)
 16:    120.30   0.004346   21.96  0.011273  (-0.077398  0.025376 -0.068110)
 17:    169.84   0.000876    4.43  0.001610  (-0.034289  0.000116 -0.020832)
 18:    193.37   0.000588    2.97  0.000948  (-0.023908 -0.017607  0.008177)
 19:    226.03   0.000350    1.77  0.000484  (-0.013500 -0.013893  0.010419)
 20:    246.01   0.017202   86.93  0.021820  ( 0.024689  0.045786 -0.138255)
 21:    264.06   0.001677    8.47  0.001981  ( 0.015995  0.004157 -0.041330)
 22:    273.47   0.004584   23.16  0.005230  ( 0.002138 -0.057769  0.043457)
 23:    287.97   0.004608   23.29  0.004993  (-0.066642 -0.002294 -0.023387)
 24:    309.01   0.000086    0.43  0.000087  ( 0.008276  0.000646  0.004218)
 25:    343.87   0.023975  121.16  0.021758  ( 0.038201  0.066699 -0.125897)
 26:    378.14   0.001984   10.03  0.001637  ( 0.028381 -0.015272  0.024468)
 27:    386.07   0.005596   28.28  0.004524  ( 0.021216  0.009493  0.063114)
 28:    421.31   0.013612   68.79  0.010082  (-0.044995 -0.029136  0.084906)
 29:    432.36   0.024557  124.10  0.017724  ( 0.040930  0.038544 -0.120680)
 30:    436.63   0.002152   10.88  0.001538  ( 0.002875  0.026709 -0.028576)
 31:    452.51   0.001365    6.90  0.000942  ( 0.025791 -0.012430  0.011045)
 32:    464.42   0.003546   17.92  0.002383  (-0.036747 -0.008406 -0.031014)
 33:    486.33   0.000395    1.99  0.000253  ( 0.009565 -0.000058 -0.012718)
 34:    535.14   0.003096   15.64  0.001805  ( 0.023313 -0.000816 -0.035511)
 35:    569.25   0.010243   51.76  0.005615  (-0.074206 -0.001203 -0.010352)
 36:    595.68   0.003353   16.95  0.001757  ( 0.021790  0.031147 -0.017653)
 37:    618.87   0.005374   27.16  0.002710  ( 0.051106  0.009706  0.002014)
 38:    625.21   0.002935   14.83  0.001465  (-0.027057  0.023439  0.013541)
 39:    666.82   0.006594   33.32  0.003086  ( 0.038142 -0.010736  0.038932)
 40:    712.55   0.016611   83.94  0.007275  (-0.083598  0.002534  0.016723)
 41:    728.82   0.004720   23.85  0.002021  (-0.011913 -0.042826  0.006716)
 42:    789.42   0.002897   14.64  0.001145  ( 0.013541  0.024775 -0.018660)
 43:    801.51   0.007741   39.12  0.003014  (-0.053163  0.010875  0.008324)
 44:    834.99   0.005367   27.12  0.002006  ( 0.033371  0.019963 -0.022216)
 45:    845.87   0.008749   44.21  0.003228  ( 0.011277 -0.011564  0.054468)
 46:    853.05   0.000118    0.59  0.000043  (-0.003802  0.003582  0.003972)
 47:    884.03   0.007166   36.21  0.002530  ( 0.046568  0.012322  0.014462)
 48:    892.42   0.001410    7.12  0.000493  ( 0.017389 -0.013627 -0.002196)
 49:    905.40   0.002289   11.57  0.000789  (-0.027272  0.000795 -0.006678)
 50:    923.98   0.000152    0.77  0.000051  (-0.000466  0.006570  0.002834)
 51:    932.61   0.010780   54.48  0.003607  ( 0.021734 -0.053295  0.017161)
 52:    944.65   0.000597    3.02  0.000197  (-0.010222  0.009187  0.002866)
 53:    976.74   0.001106    5.59  0.000353  ( 0.011814  0.014464 -0.002160)
 54:    996.54   0.000224    1.13  0.000070  (-0.007703  0.002255  0.002412)
 55:   1021.03   0.001793    9.06  0.000548  (-0.001138  0.012375 -0.019839)
 56:   1029.56   0.001531    7.74  0.000464  ( 0.017137  0.006322  0.011415)
 57:   1064.42   0.011741   59.34  0.003442  ( 0.032618  0.023893 -0.042514)
 58:   1074.12   0.005250   26.53  0.001525  ( 0.016697 -0.034088 -0.009190)
 59:   1081.77   0.009893   49.99  0.002854  (-0.033267 -0.025121 -0.033407)
 60:   1098.52   0.004583   23.16  0.001302  ( 0.021095 -0.011960 -0.026720)
 61:   1101.65   0.001032    5.21  0.000292  ( 0.001879 -0.016203 -0.005121)
 62:   1106.17   0.008826   44.61  0.002490  ( 0.011787  0.019420 -0.044430)
 63:   1108.54   0.038227  193.18  0.010761  ( 0.038056 -0.091246 -0.031417)
 64:   1116.07   0.005650   28.55  0.001580  ( 0.023106 -0.030249 -0.011436)
 65:   1147.93   0.005518   27.88  0.001500  ( 0.014429 -0.000402 -0.035940)
 66:   1174.22   0.004429   22.38  0.001177  (-0.021426  0.019842  0.018005)
 67:   1189.85   0.000196    0.99  0.000051  (-0.003439 -0.005967 -0.001982)
 68:   1192.44   0.001981   10.01  0.000518  (-0.005323  0.007072 -0.020978)
 69:   1226.92   0.000376    1.90  0.000096  ( 0.001965 -0.009298  0.002307)
 70:   1254.75   0.001986   10.03  0.000494  ( 0.012218 -0.016460 -0.008580)
 71:   1284.89   0.010219   51.64  0.002482  ( 0.022711  0.002055 -0.044293)
 72:   1305.79   0.000873    4.41  0.000209  (-0.007118 -0.012505  0.001288)
 73:   1316.94   0.007162   36.19  0.001697  ( 0.026367  0.022582 -0.022177)
 74:   1331.62   0.005069   25.62  0.001188  (-0.028578 -0.012003  0.015072)
 75:   1342.70   0.001011    5.11  0.000235  (-0.004173 -0.014369  0.003335)
 76:   1344.62   0.004311   21.79  0.001001  (-0.022805  0.017460  0.013254)
 77:   1354.65   0.080474  406.68  0.018538  (-0.066183  0.086991  0.081183)
 78:   1383.15   0.003318   16.77  0.000749  ( 0.006756 -0.025109 -0.008513)
 79:   1408.23   0.030455  153.91  0.006749  ( 0.074298  0.010342 -0.033492)
 80:   1411.78   0.005074   25.64  0.001121  (-0.007940 -0.018041  0.027073)
 81:   1422.43   0.002708   13.68  0.000594  ( 0.011069  0.011610  0.018350)
 82:   1436.98   0.086192  435.58  0.018718  ( 0.067568  0.117471 -0.018787)
 83:   1460.87   0.068122  344.26  0.014552  ( 0.075460  0.092302  0.018381)
 84:   1470.54   0.002474   12.50  0.000525  ( 0.013552 -0.015849  0.009493)
 85:   1479.64   0.000249    1.26  0.000052  (-0.003521  0.000917  0.006260)
 86:   1481.44   0.015681   79.24  0.003303  ( 0.025384  0.037685  0.035194)
 87:   1483.62   0.001246    6.30  0.000262  ( 0.014714  0.005391 -0.004056)
 88:   1487.60   0.001746    8.82  0.000366  ( 0.001176  0.011655  0.015132)
 89:   1489.29   0.002403   12.15  0.000504  ( 0.021388 -0.003663  0.005722)
 90:   1497.97   0.001744    8.81  0.000363  ( 0.000191 -0.009454  0.016549)
 91:   1511.21   0.007922   40.04  0.001636  (-0.004388  0.034338 -0.020918)
 92:   1599.77   0.014874   75.17  0.002901  (-0.000778  0.024936 -0.047739)
 93:   1606.82   0.028214  142.58  0.005480  ( 0.033664  0.062681 -0.020430)
 94:   1631.97   0.012484   63.09  0.002387  ( 0.004223  0.048432 -0.004857)
 95:   1694.66   0.064326  325.08  0.011845  ( 0.099294  0.028424 -0.034322)
 96:   2155.20   0.495581  2504.46  0.071758  (-0.161155 -0.132422  0.168082)
 97:   3000.98   0.005737   28.99  0.000597  ( 0.009712 -0.019394 -0.011229)
 98:   3003.50   0.018113   91.53  0.001882  (-0.007748 -0.016927  0.039184)
 99:   3025.56   0.008773   44.33  0.000905  ( 0.028896  0.007126 -0.004372)
100:   3076.84   0.001725    8.72  0.000175  ( 0.000612 -0.011251 -0.006928)
101:   3079.24   0.003081   15.57  0.000312  ( 0.006303  0.005313 -0.015630)
102:   3096.39   0.005690   28.75  0.000573  (-0.008608  0.010719 -0.019607)
103:   3113.49   0.006747   34.10  0.000676  ( 0.012827 -0.021421 -0.007272)
104:   3114.96   0.003292   16.64  0.000330  (-0.011533 -0.013702  0.003000)
105:   3123.68   0.005347   27.02  0.000534  (-0.000383  0.022673  0.004467)
106:   3132.30   0.002350   11.87  0.000234  (-0.005649 -0.010601  0.009476)
107:   3139.07   0.001139    5.76  0.000113  (-0.001887 -0.000219 -0.010470)
108:   3180.62   0.001358    6.86  0.000133  (-0.001476 -0.008496 -0.007673)
109:   3196.33   0.001080    5.46  0.000105  ( 0.000371 -0.001879  0.010089)
110:   3207.23   0.000274    1.38  0.000027  ( 0.000427 -0.003016 -0.004165)
111:   3214.18   0.000057    0.29  0.000006  (-0.001992  0.001253 -0.000065)
112:   3362.62   0.077001  389.13  0.007146  ( 0.074923  0.017963  0.034783)
113:   3780.85   0.006069   30.67  0.000501  (-0.008666  0.018981 -0.008098)

--------------------------
THERMOCHEMISTRY AT 298.15K
--------------------------

Temperature         ... 298.15 K
Pressure            ... 1.00 atm
Total Mass          ... 291.74 AMU

Throughout the following assumptions are being made:
  (1) The electronic state is orbitally nondegenerate
  (2) There are no thermally accessible electronically excited states
  (3) Hindered rotations indicated by low frequency modes are not
      treated as such but are treated as vibrations and this may
      cause some error
  (4) All equations used are the standard statistical mechanics
      equations for an ideal gas
  (5) All vibrations are strictly harmonic

freq.      14.70  E(vib)   ...       0.57
freq.      32.18  E(vib)   ...       0.55
freq.      49.69  E(vib)   ...       0.52
freq.      56.85  E(vib)   ...       0.51
freq.      72.30  E(vib)   ...       0.50
freq.      82.15  E(vib)   ...       0.48
freq.      93.09  E(vib)   ...       0.47
freq.     109.85  E(vib)   ...       0.45
freq.     111.23  E(vib)   ...       0.45
freq.     120.30  E(vib)   ...       0.44
freq.     169.84  E(vib)   ...       0.38
freq.     193.37  E(vib)   ...       0.36
freq.     226.03  E(vib)   ...       0.33
freq.     246.01  E(vib)   ...       0.31
freq.     264.06  E(vib)   ...       0.29
freq.     273.47  E(vib)   ...       0.29
freq.     287.97  E(vib)   ...       0.27
freq.     309.01  E(vib)   ...       0.26
freq.     343.87  E(vib)   ...       0.23
freq.     378.14  E(vib)   ...       0.21
freq.     386.07  E(vib)   ...       0.20
freq.     421.31  E(vib)   ...       0.18
freq.     432.36  E(vib)   ...       0.18
freq.     436.63  E(vib)   ...       0.17
freq.     452.51  E(vib)   ...       0.16
freq.     464.42  E(vib)   ...       0.16
freq.     486.33  E(vib)   ...       0.15
freq.     535.14  E(vib)   ...       0.13
freq.     569.25  E(vib)   ...       0.11
freq.     595.68  E(vib)   ...       0.10
freq.     618.87  E(vib)   ...       0.09
freq.     625.21  E(vib)   ...       0.09
freq.     666.82  E(vib)   ...       0.08
freq.     712.55  E(vib)   ...       0.07
freq.     728.82  E(vib)   ...       0.06
freq.     789.42  E(vib)   ...       0.05
freq.     801.51  E(vib)   ...       0.05
freq.     834.99  E(vib)   ...       0.04
freq.     845.87  E(vib)   ...       0.04
freq.     853.05  E(vib)   ...       0.04
freq.     884.03  E(vib)   ...       0.04
freq.     892.42  E(vib)   ...       0.03
freq.     905.40  E(vib)   ...       0.03
freq.     923.98  E(vib)   ...       0.03
freq.     932.61  E(vib)   ...       0.03
freq.     944.65  E(vib)   ...       0.03
freq.     976.74  E(vib)   ...       0.03
freq.     996.54  E(vib)   ...       0.02
freq.    1021.03  E(vib)   ...       0.02
freq.    1029.56  E(vib)   ...       0.02
freq.    1064.42  E(vib)   ...       0.02
freq.    1074.12  E(vib)   ...       0.02
freq.    1081.77  E(vib)   ...       0.02
freq.    1098.52  E(vib)   ...       0.02
freq.    1101.65  E(vib)   ...       0.02
freq.    1106.17  E(vib)   ...       0.02
freq.    1108.54  E(vib)   ...       0.02
freq.    1116.07  E(vib)   ...       0.01
freq.    1147.93  E(vib)   ...       0.01
freq.    1174.22  E(vib)   ...       0.01
freq.    1189.85  E(vib)   ...       0.01
freq.    1192.44  E(vib)   ...       0.01
freq.    1226.92  E(vib)   ...       0.01
freq.    1254.75  E(vib)   ...       0.01
freq.    1284.89  E(vib)   ...       0.01
freq.    1305.79  E(vib)   ...       0.01
freq.    1316.94  E(vib)   ...       0.01
freq.    1331.62  E(vib)   ...       0.01
freq.    1342.70  E(vib)   ...       0.01
freq.    1344.62  E(vib)   ...       0.01
freq.    1354.65  E(vib)   ...       0.01
freq.    1383.15  E(vib)   ...       0.01
freq.    1408.23  E(vib)   ...       0.00
freq.    1411.78  E(vib)   ...       0.00
freq.    1422.43  E(vib)   ...       0.00
freq.    1436.98  E(vib)   ...       0.00
freq.    1460.87  E(vib)   ...       0.00
freq.    1470.54  E(vib)   ...       0.00
freq.    1479.64  E(vib)   ...       0.00
freq.    1481.44  E(vib)   ...       0.00
freq.    1483.62  E(vib)   ...       0.00
freq.    1487.60  E(vib)   ...       0.00
freq.    1489.29  E(vib)   ...       0.00
freq.    1497.97  E(vib)   ...       0.00
freq.    1511.21  E(vib)   ...       0.00
freq.    1599.77  E(vib)   ...       0.00
freq.    1606.82  E(vib)   ...       0.00
freq.    1631.97  E(vib)   ...       0.00
freq.    1694.66  E(vib)   ...       0.00
freq.    2155.20  E(vib)   ...       0.00
freq.    3000.98  E(vib)   ...       0.00
freq.    3003.50  E(vib)   ...       0.00
freq.    3025.56  E(vib)   ...       0.00
freq.    3076.84  E(vib)   ...       0.00
freq.    3079.24  E(vib)   ...       0.00
freq.    3096.39  E(vib)   ...       0.00
freq.    3113.49  E(vib)   ...       0.00
freq.    3114.96  E(vib)   ...       0.00
freq.    3123.68  E(vib)   ...       0.00
freq.    3132.30  E(vib)   ...       0.00
freq.    3139.07  E(vib)   ...       0.00
freq.    3180.62  E(vib)   ...       0.00
freq.    3196.33  E(vib)   ...       0.00
freq.    3207.23  E(vib)   ...       0.00
freq.    3214.18  E(vib)   ...       0.00
freq.    3362.62  E(vib)   ...       0.00
freq.    3780.85  E(vib)   ...       0.00

------------
INNER ENERGY
------------

The inner energy is: U= E(el) + E(ZPE) + E(vib) + E(rot) + E(trans)
    E(el)   - is the total energy from the electronic structure calculation
              = E(kin-el) + E(nuc-el) + E(el-el) + E(nuc-nuc)
    E(ZPE)  - the the zero temperature vibrational energy from the frequency calculation
    E(vib)  - the the finite temperature correction to E(ZPE) due to population
              of excited vibrational states
    E(rot)  - is the rotational thermal energy
    E(trans)- is the translational thermal energy

Summary of contributions to the inner energy U:
Electronic energy                ...  -1339.09723491 Eh
Zero point energy                ...      0.30385628 Eh     190.67 kcal/mol
Thermal vibrational correction   ...      0.01690282 Eh      10.61 kcal/mol
Thermal rotational correction    ...      0.00141627 Eh       0.89 kcal/mol
Thermal translational correction ...      0.00141627 Eh       0.89 kcal/mol
-----------------------------------------------------------------------
Total thermal energy                  -1338.77364327 Eh

Summary of corrections to the electronic energy:
(perhaps to be used in another calculation)
Total thermal correction                  0.01973536 Eh      12.38 kcal/mol
Non-thermal (ZPE) correction              0.30385628 Eh     190.67 kcal/mol
-----------------------------------------------------------------------
Total correction                          0.32359164 Eh     203.06 kcal/mol

--------
ENTHALPY
--------

The enthalpy is H = U + kB*T

Rotational constants in cm-1:     0.011987     0.008152     0.006256

                             ****ORCA TERMINATED NORMALLY****
TOTAL RUN TIME: 0 days 1 hours 51 minutes 45 seconds 733 msec
