                         Program Version 5.0.4 -  RELEASE  -
|  1> !  NUMFREQ B3LYP def2-TZVP CPCM D3
|  2> %pal nprocs 102 end
|  3> %cpcm epsilon 78.4 end
|  4> *xyz 0 1
|  5> C   -0.40952142750422 0.24358048912224 -0.42200473796076
|  6> H   0.03797800271559 -0.19183756102129 -1.30798514893385
|  7> H   -0.25533590658739 1.32143823117561 -0.39311555498262
|  8> H   -0.04914487248295 -0.21032536533683 0.49547725275152 M = 2
|  9> N   -1.88480074922116 0.0325045845643 -0.49091271817321
| 10> O   -2.5223470438724 0.15166803229637 0.54364630424719
| 11> O   -2.38116253777732 -0.22384168703477 -1.57651716467047
| 12> H   2.53720866337275 -0.9689594404876 0.53572432541065
| 13> O   2.48334731543245 -0.54981490763 1.4039224523673
| 14> H   2.44377855592466 0.39558762435198 1.21176498994427
| 15> *
| 16>
| 17>                          ****END OF INPUT****

CARTESIAN COORDINATES (ANGSTROEM)
---------------------------------
  C     -0.409521    0.243580   -0.422005
  H      0.037978   -0.191838   -1.307985
  H     -0.255336    1.321438   -0.393116
  H     -0.049145   -0.210325    0.495477
  N     -1.884801    0.032505   -0.490913
  O     -2.522347    0.151668    0.543646
  O     -2.381163   -0.223842   -1.576517
  H      2.537209   -0.968959    0.535724
  O      2.483347   -0.549815    1.403922
  H      2.443779    0.395588    1.211765

 Total Charge           Charge          ....    0
 Multiplicity           Mult            ....    1
 Number of Electrons    NEL             ....   42
 Basis Dimension        Dim             ....  185

ORBITAL ENERGIES
----------------

  NO   OCC          E(Eh)            E(eV)
   0   2.0000     -19.171575      -521.6851
   1   2.0000     -19.170568      -521.6577
   2   2.0000     -19.124822      -520.4129
   3   2.0000     -14.559279      -396.1781
   4   2.0000     -10.219989      -278.1000
   5   2.0000      -1.243113       -33.8268
   6   2.0000      -1.069115       -29.0921
   7   2.0000      -1.008302       -27.4373
   8   2.0000      -0.813104       -22.1257
   9   2.0000      -0.624714       -16.9993
  10   2.0000      -0.555677       -15.1207
  11   2.0000      -0.544784       -14.8243
  12   2.0000      -0.534341       -14.5402
  13   2.0000      -0.525480       -14.2990
  14   2.0000      -0.439308       -11.9542
  15   2.0000      -0.421676       -11.4744
  16   2.0000      -0.393128       -10.6976
  17   2.0000      -0.332210        -9.0399
  18   2.0000      -0.325681        -8.8622
  19   2.0000      -0.316507        -8.6126
  20   2.0000      -0.308829        -8.4037
  21   0.0000      -0.081546        -2.2190
  22   0.0000       0.025817         0.7025
  23   0.0000       0.068526         1.8647
  24   0.0000       0.101414         2.7596
  25   0.0000       0.112162         3.0521

MULLIKEN ATOMIC CHARGES
-----------------------
   0 C :   -0.265301
   1 H :    0.167253
   2 H :    0.181895
   3 H :    0.162753
   4 N :    0.427203
   5 O :   -0.346680
   6 O :   -0.348516
   7 H :    0.362301
   8 O :   -0.703363
   9 H :    0.362456
Sum of atomic charges:   -0.0000000

LOEWDIN ATOMIC CHARGES
----------------------
   0 C :   -0.237235
   1 H :    0.132815
   2 H :    0.145224
   3 H :    0.129200
   4 N :   -0.067656
   5 O :   -0.060636
   6 O :   -0.058812
   7 H :    0.173661
   8 O :   -0.329939
   9 H :    0.173377

  Mayer bond orders larger than 0.100000
B(  0-C ,  1-H ) :   0.9520 B(  0-C ,  2-H ) :   0.9353 B(  0-C ,  3-H ) :   0.9419
B(  0-C ,  4-N ) :   0.8772 B(  4-N ,  5-O ) :   1.6122 B(  4-N ,  6-O ) :   1.6170
B(  5-O ,  6-O ) :   0.2112 B(  7-H ,  8-O ) :   0.8797 B(  8-O ,  9-H ) :   0.8795

Dispersion correction           -0.007668141
FINAL SINGLE POINT ENERGY      -321.457452417850
Dispersion correction            ... done

DIPOLE MOMENT
-------------
                                X             Y             Z
Electronic contribution:     -5.71641      -0.15299      -1.01768
Nuclear contribution   :      7.52802       0.81806       0.28340
                        -----------------------------------------
Total Dipole Moment    :      1.81161       0.66507      -0.73428
                        -----------------------------------------
Magnitude (a.u.)       :      2.06480
Magnitude (Debye)      :      5.24831

VIBRATIONAL FREQUENCIES
-----------------------

Scaling factor for frequencies =  1.000000000 (already applied!)

   0:         0.00 cm**-1
   1:         0.00 cm**-1
   2:         0.00 cm**-1
   3:         0.00 cm**-1
   4:         0.00 cm**-1
   5:         0.00 cm**-1
   6:       -45.27 cm**-1 ***imaginary mode***
   7:        21.30 cm**-1
   8:        61.46 cm**-1
   9:        63.18 cm**-1
  10:        88.50 cm**-1
  11:       178.83 cm**-1
  12:       215.29 cm**-1
  13:       465.65 cm**-1
  14:       604.34 cm**-1
  15:       649.41 cm**-1
  16:       912.27 cm**-1
  17:       966.85 cm**-1
  18:      1079.55 cm**-1
  19:      1280.57 cm**-1
  20:      1313.98 cm**-1
  21:      1422.91 cm**-1
  22:      1441.50 cm**-1
  23:      1560.08 cm**-1
  24:      1598.15 cm**-1
  25:      2323.94 cm**-1
  26:      3108.42 cm**-1
  27:      3191.07 cm**-1
  28:      3761.66 cm**-1
  29:      3843.61 cm**-1

IR SPECTRUM
-----------

 Mode   freq       eps      Int      T**2         TX        TY        TZ
       cm**-1   L/(mol*cm) km/mol    a.u.
----------------------------------------------------------------------------
  7:     21.30   0.002384   12.05  0.034935  (-0.119813  0.042094  0.137143)
  8:     61.46   0.003593   18.16  0.018243  (-0.121780 -0.029721 -0.050293)
  9:     63.18   0.000983    4.97  0.004857  ( 0.024056 -0.055575 -0.034492)
 10:     88.50   0.021834  110.34  0.076988  ( 0.061534 -0.247635 -0.108990)
 11:    178.83   0.012763   64.50  0.022272  (-0.141203  0.044739  0.018219)
 12:    215.29   0.067341  340.31  0.097612  (-0.307763 -0.043005 -0.032309)
 13:    465.65   0.000181    0.91  0.000121  ( 0.001739 -0.004543 -0.009877)
 14:    604.34   0.001382    6.98  0.000714  ( 0.000757 -0.024887  0.009675)
 15:    649.41   0.006194   31.30  0.002976  (-0.053619 -0.005520 -0.008425)
 16:    912.27   0.003391   17.14  0.001160  (-0.030561 -0.001336  0.014974)
 17:    966.85   0.003230   16.33  0.001043  ( 0.015149  0.011396  0.026140)
 18:   1079.55   0.001457    7.36  0.000421  (-0.009748 -0.013722  0.011739)
 19:   1280.57   0.007921   40.03  0.001930  ( 0.011982  0.018639  0.037939)
 20:   1313.98   0.002236   11.30  0.000531  ( 0.014057 -0.015492 -0.009666)
 21:   1422.91   0.024916  125.92  0.005464  (-0.066118 -0.016906  0.028409)
 22:   1441.50   0.014834   74.97  0.003211  (-0.043340  0.002912 -0.036395)
 23:   1560.08   0.128295  648.35  0.025663  ( 0.009806 -0.029254 -0.157197)
 24:   1598.15   0.025477  128.75  0.004975  (-0.001819  0.031198 -0.063232)
 25:   2323.94   0.000202    1.02  0.000027  ( 0.004542 -0.000615  0.002487)
 26:   3108.42   0.000218    1.10  0.000022  (-0.003179 -0.003422 -0.000276)
 27:   3191.07   0.000404    2.04  0.000040  (-0.006019 -0.001799 -0.000231)
 28:   3761.66   0.004531   22.90  0.000376  (-0.003056 -0.008449  0.017181)
 29:   3843.61   0.022166  112.02  0.001800  ( 0.002647 -0.037921 -0.018832)

--------------------------
THERMOCHEMISTRY AT 298.15K
--------------------------

Temperature         ... 298.15 K
Pressure            ... 1.00 atm
Total Mass          ... 80.05 AMU

Throughout the following assumptions are being made:
  (1) The electronic state is orbitally nondegenerate
  (2) There are no thermally accessible electronically excited states
  (3) Hindered rotations indicated by low frequency modes are not
      treated as such but are treated as vibrations and this may
      cause some error
  (4) All equations used are the standard statistical mechanics
      equations for an ideal gas
  (5) All vibrations are strictly harmonic

freq.      21.30  E(vib)   ...       0.56
freq.      61.46  E(vib)   ...       0.51
freq.      63.18  E(vib)   ...       0.51
freq.      88.50  E(vib)   ...       0.47
freq.     178.83  E(vib)   ...       0.37
freq.     215.29  E(vib)   ...       0.34
freq.     465.65  E(vib)   ...       0.16
freq.     604.34  E(vib)   ...       0.10
freq.     649.41  E(vib)   ...       0.08
freq.     912.27  E(vib)   ...       0.03
freq.     966.85  E(vib)   ...       0.03
freq.    1079.55  E(vib)   ...       0.02
freq.    1280.57  E(vib)   ...       0.01
freq.    1313.98  E(vib)   ...       0.01
freq.    1422.91  E(vib)   ...       0.00
freq.    1441.50  E(vib)   ...       0.00
freq.    1560.08  E(vib)   ...       0.00
freq.    1598.15  E(vib)   ...       0.00
freq.    2323.94  E(vib)   ...       0.00
freq.    3108.42  E(vib)   ...       0.00
freq.    3191.07  E(vib)   ...       0.00
freq.    3761.66  E(vib)   ...       0.00
freq.    3843.61  E(vib)   ...       0.00

------------
INNER ENERGY
------------

The inner energy is: U= E(el) + E(ZPE) + E(vib) + E(rot) + E(trans)
    E(el)   - is the total energy from the electronic structure calculation
              = E(kin-el) + E(nuc-el) + E(el-el) + E(nuc-nuc)
    E(ZPE)  - the the zero temperature vibrational energy from the frequency calculation
    E(vib)  - the the finite temperature correction to E(ZPE) due to population
              of excited vibrational states
    E(rot)  - is the rotational thermal energy
    E(trans)- is the translational thermal energy

Summary of contributions to the inner energy U:
Electronic energy                ...   -321.45745242 Eh
Zero point energy                ...      0.06869247 Eh      43.11 kcal/mol
Thermal vibrational correction   ...      0.00511050 Eh       3.21 kcal/mol
Thermal rotational correction    ...      0.00141627 Eh       0.89 kcal/mol
Thermal translational correction ...      0.00141627 Eh       0.89 kcal/mol
-----------------------------------------------------------------------
Total thermal energy                   -321.38081691 Eh

Summary of corrections to the electronic energy:
(perhaps to be used in another calculation)
Total thermal correction                  0.00794304 Eh       4.98 kcal/mol
Non-thermal (ZPE) correction              0.06869247 Eh      43.11 kcal/mol
-----------------------------------------------------------------------
Total correction                          0.07663551 Eh      48.09 kcal/mol

--------
ENTHALPY
--------

The enthalpy is H = U + kB*T
                kB is Boltzmann's constant
Total free energy                 ...   -321.38081691 Eh
Thermal Enthalpy correction       ...      0.00094421 Eh       0.59 kcal/mol
-----------------------------------------------------------------------
Total Enthalpy                    ...   -321.37987270 Eh

Note: Only C1 symmetry has been detected, increase convergence thresholds
      if your molecule has a higher symmetry. Symmetry factor of 1.0 is
      used for the rotational entropy correction.

Note: Rotational entropy computed according to Herzberg
Infrared and Raman Spectra, Chapter V,1, Van Nostrand Reinhold, 1945
Point Group:  C1, Symmetry Number:   1
Rotational constants in cm-1:     0.362049     0.047292     0.043166

Vibrational entropy computed according to the QRRHO of S. Grimme
Chem.Eur.J. 2012 18 9955

-------
ENTROPY
-------

The entropy contributions are T*S = T*(S(el)+S(vib)+S(rot)+S(trans))
     S(el)   - electronic entropy
     S(vib)  - vibrational entropy
     S(rot)  - rotational entropy
     S(trans)- translational entropy
The entropies will be listed as multiplied by the temperature to get
units of energy

Electronic entropy                ...      0.00000000 Eh      0.00 kcal/mol
Vibrational entropy               ...      0.00992474 Eh      6.23 kcal/mol
Rotational entropy                ...      0.01291463 Eh      8.10 kcal/mol
Translational entropy             ...      0.01855604 Eh     11.64 kcal/mol
-----------------------------------------------------------------------
Final entropy term                ...      0.04139541 Eh     25.98 kcal/mol

In case the symmetry of your molecule has not been determined correctly
or in case you have a reason to use a different symmetry number we print
out the resulting rotational entropy values for sn=1,12 :
 --------------------------------------------------------
|  sn= 1 | S(rot)=       0.01291463 Eh      8.10 kcal/mol|
|  sn= 2 | S(rot)=       0.01226017 Eh      7.69 kcal/mol|
|  sn= 3 | S(rot)=       0.01187734 Eh      7.45 kcal/mol|
|  sn= 4 | S(rot)=       0.01160571 Eh      7.28 kcal/mol|
|  sn= 5 | S(rot)=       0.01139502 Eh      7.15 kcal/mol|
|  sn= 6 | S(rot)=       0.01122288 Eh      7.04 kcal/mol|
|  sn= 7 | S(rot)=       0.01107733 Eh      6.95 kcal/mol|
|  sn= 8 | S(rot)=       0.01095126 Eh      6.87 kcal/mol|
|  sn= 9 | S(rot)=       0.01084005 Eh      6.80 kcal/mol|
|  sn=10 | S(rot)=       0.01074057 Eh      6.74 kcal/mol|
|  sn=11 | S(rot)=       0.01065058 Eh      6.68 kcal/mol|
|  sn=12 | S(rot)=       0.01056842 Eh      6.63 kcal/mol|
 --------------------------------------------------------

-------------------
GIBBS FREE ENERGY
-------------------

The Gibbs free energy is G = H - T*S

Total enthalpy                    ...   -321.37987270 Eh
Total entropy correction          ...     -0.04139541 Eh    -25.98 kcal/mol
-----------------------------------------------------------------------
Final Gibbs free energy         ...   -321.42126811 Eh

For completeness - the Gibbs free energy minus the electronic energy
G-E(el)                           ...      0.03618431 Eh     22.71 kcal/mol

                             ****ORCA TERMINATED NORMALLY****
TOTAL RUN TIME: 0 days 0 hours 1 minutes 34 seconds 310 msec
