                         Program Version 5.0.0 -  RELEASE  -
|  1> !  NUMFREQ B3LYP def2-TZVP CPCM D3
|  2> %pal nprocs 18 end
|  3> %cpcm epsilon 78.4 end
|  4> *xyz 0 1
|  5> C   -0.53107882415903 0.1244830703653 -0.29602729637898
|  6> H   -0.4455058924261 -0.52076333183192 -1.16266662340365
|  7> H   -0.22618834119085 1.14285118051914 -0.53333661637302
|  8> H   0.02802052962853 -0.24487330826329 0.55699944389906
|  9> N   -1.96948740274969 0.19862370432579 0.09272880013286
| 10> O   -2.23102486144438 0.59780006334372 1.21687339963828
| 11> O   -2.80921615726499 -0.11781926598491 -0.73493715412691
| 12> H   2.89225232325362 -0.71670250807139 -0.41305417501593
| 13> O   2.69866579541036 -0.7001583408464 0.53263424046079
| 14> H   2.59356283094253 0.23655873644394 0.74078598116752
| 15> *
| 16>
| 17>                          ****END OF INPUT****

CARTESIAN COORDINATES (ANGSTROEM)
---------------------------------
  C     -0.531079    0.124483   -0.296027
  H     -0.445506   -0.520763   -1.162667
  H     -0.226188    1.142851   -0.533337
  H      0.028021   -0.244873    0.556999
  N     -1.969487    0.198624    0.092729
  O     -2.231025    0.597800    1.216873
  O     -2.809216   -0.117819   -0.734937
  H      2.892252   -0.716703   -0.413054
  O      2.698666   -0.700158    0.532634
  H      2.593563    0.236559    0.740786

 Total Charge           Charge          ....    0
 Multiplicity           Mult            ....    1
 Number of Electrons    NEL             ....   42
 Basis Dimension        Dim             ....  185

ORBITAL ENERGIES
----------------

  NO   OCC          E(Eh)            E(eV)
   0   2.0000     -19.171271      -521.6768
   1   2.0000     -19.170171      -521.6469
   2   2.0000     -19.124061      -520.3922
   3   2.0000     -14.558817      -396.1655
   4   2.0000     -10.219327      -278.0820
   5   2.0000      -1.242739       -33.8167
   6   2.0000      -1.068746       -29.0821
   7   2.0000      -1.007794       -27.4235
   8   2.0000      -0.812578       -22.1114
   9   2.0000      -0.624243       -16.9865
  10   2.0000      -0.555279       -15.1099
  11   2.0000      -0.544315       -14.8116
  12   2.0000      -0.534036       -14.5319
  13   2.0000      -0.525237       -14.2924
  14   2.0000      -0.438508       -11.9324
  15   2.0000      -0.421136       -11.4597
  16   2.0000      -0.392493       -10.6803
  17   2.0000      -0.331920        -9.0320
  18   2.0000      -0.325704        -8.8629
  19   2.0000      -0.315460        -8.5841
  20   2.0000      -0.308531        -8.3956
  21   0.0000      -0.081179        -2.2090
  22   0.0000       0.026268         0.7148
  23   0.0000       0.068348         1.8599
  24   0.0000       0.101647         2.7660
  25   0.0000       0.112354         3.0573

MULLIKEN ATOMIC CHARGES
-----------------------
   0 C :   -0.264856
   1 H :    0.164833
   2 H :    0.180851
   3 H :    0.168491
   4 N :    0.428512
   5 O :   -0.347586
   6 O :   -0.349265
   7 H :    0.360847
   8 O :   -0.703878
   9 H :    0.362051
Sum of atomic charges:   -0.0000000

LOEWDIN ATOMIC CHARGES
----------------------
   0 C :   -0.239120
   1 H :    0.132401
   2 H :    0.144848
   3 H :    0.130809
   4 N :   -0.067623
   5 O :   -0.061474
   6 O :   -0.058960
   7 H :    0.174379
   8 O :   -0.328401
   9 H :    0.173140

  Mayer bond orders larger than 0.100000
B(  0-C ,  1-H ) :   0.9528 B(  0-C ,  2-H ) :   0.9359 B(  0-C ,  3-H ) :   0.9435
B(  0-C ,  4-N ) :   0.8762 B(  4-N ,  5-O ) :   1.6111 B(  4-N ,  6-O ) :   1.6162
B(  5-O ,  6-O ) :   0.2112 B(  7-H ,  8-O ) :   0.8800 B(  8-O ,  9-H ) :   0.8789

Dispersion correction           -0.007632381
FINAL SINGLE POINT ENERGY      -321.457265468662
Dispersion correction            ... done

DIPOLE MOMENT
-------------
                                X             Y             Z
Electronic contribution:     -6.65118       0.77173       0.49335
Nuclear contribution   :      8.48801      -0.13776      -1.53463
                        -----------------------------------------
Total Dipole Moment    :      1.83683       0.63397      -1.04129
                        -----------------------------------------
Magnitude (a.u.)       :      2.20457
Magnitude (Debye)      :      5.60358

VIBRATIONAL FREQUENCIES
-----------------------

Scaling factor for frequencies =  1.000000000 (already applied!)

   0:         0.00 cm**-1
   1:         0.00 cm**-1
   2:         0.00 cm**-1
   3:         0.00 cm**-1
   4:         0.00 cm**-1
   5:         0.00 cm**-1
   6:       -78.41 cm**-1 ***imaginary mode***
   7:       -28.59 cm**-1 ***imaginary mode***
   8:       -21.47 cm**-1 ***imaginary mode***
   9:        37.12 cm**-1
  10:        55.82 cm**-1
  11:        63.77 cm**-1
  12:       164.67 cm**-1
  13:       485.73 cm**-1
  14:       621.67 cm**-1
  15:       663.89 cm**-1
  16:       929.42 cm**-1
  17:      1110.45 cm**-1
  18:      1137.16 cm**-1
  19:      1397.28 cm**-1
  20:      1436.94 cm**-1
  21:      1438.96 cm**-1
  22:      1457.96 cm**-1
  23:      1565.63 cm**-1
  24:      1593.63 cm**-1
  25:      3080.98 cm**-1
  26:      3172.29 cm**-1
  27:      3209.30 cm**-1
  28:      3763.07 cm**-1
  29:      3846.36 cm**-1

IR SPECTRUM
-----------

 Mode   freq       eps      Int      T**2         TX        TY        TZ
       cm**-1   L/(mol*cm) km/mol    a.u.
----------------------------------------------------------------------------
  9:     37.12   0.022935  115.90  0.192805  (-0.433761 -0.000361 -0.068236)
 10:     55.82   0.001141    5.77  0.006377  ( 0.047477  0.058787 -0.025837)
 11:     63.77   0.011412   57.67  0.055847  ( 0.231404  0.018422  0.044271)
 12:    164.67   0.044538  225.08  0.084403  ( 0.286021  0.001401  0.050915)
 13:    485.73   0.000583    2.95  0.000374  (-0.000805 -0.007345 -0.017884)
 14:    621.67   0.001650    8.34  0.000828  ( 0.017402  0.019416 -0.012182)
 15:    663.89   0.006713   33.93  0.003156  ( 0.054106 -0.012220 -0.008875)
 16:    929.42   0.002993   15.13  0.001005  (-0.030070 -0.000779  0.010005)
 17:   1110.45   0.004390   22.18  0.001234  ( 0.012019  0.011671  0.030869)
 18:   1137.16   0.000835    4.22  0.000229  (-0.008113 -0.009497  0.008549)
 19:   1397.28   0.015866   80.18  0.003543  (-0.058730 -0.009282  0.002828)
 20:   1436.94   0.016399   82.88  0.003561  (-0.056169 -0.010747 -0.017059)
 21:   1438.96   0.022559  114.00  0.004892  ( 0.012135 -0.011783 -0.067869)
 22:   1457.96   0.006438   32.53  0.001378  (-0.016138  0.032388  0.008279)
 23:   1565.63   0.119201  602.39  0.023759  ( 0.040471  0.050977  0.139724)
 24:   1593.63   0.024227  122.44  0.004744  (-0.003883 -0.053934  0.042665)
 25:   3080.98   0.000288    1.46  0.000029  ( 0.005179  0.001455  0.000524)
 26:   3172.29   0.000231    1.17  0.000023  (-0.002391 -0.002261  0.003449)
 27:   3209.30   0.000453    2.29  0.000044  ( 0.006421 -0.001675  0.000107)
 28:   3763.07   0.004969   25.11  0.000412  ( 0.004512  0.015476 -0.012338)
 29:   3846.36   0.021837  110.35  0.001772  (-0.008164  0.026444  0.031713)

--------------------------
THERMOCHEMISTRY AT 298.15K
--------------------------

Temperature         ... 298.15 K
Pressure            ... 1.00 atm
Total Mass          ... 79.06 AMU

Throughout the following assumptions are being made:
  (1) The electronic state is orbitally nondegenerate
  (2) There are no thermally accessible electronically excited states
  (3) Hindered rotations indicated by low frequency modes are not
      treated as such but are treated as vibrations and this may
      cause some error
  (4) All equations used are the standard statistical mechanics
      equations for an ideal gas
  (5) All vibrations are strictly harmonic

freq.      37.12  E(vib)   ...       0.54
freq.      55.82  E(vib)   ...       0.52
freq.      63.77  E(vib)   ...       0.51
freq.     164.67  E(vib)   ...       0.39
freq.     485.73  E(vib)   ...       0.15
freq.     621.67  E(vib)   ...       0.09
freq.     663.89  E(vib)   ...       0.08
freq.     929.42  E(vib)   ...       0.03
freq.    1110.45  E(vib)   ...       0.02
freq.    1137.16  E(vib)   ...       0.01
freq.    1397.28  E(vib)   ...       0.00
freq.    1436.94  E(vib)   ...       0.00
freq.    1438.96  E(vib)   ...       0.00
freq.    1457.96  E(vib)   ...       0.00
freq.    1565.63  E(vib)   ...       0.00
freq.    1593.63  E(vib)   ...       0.00
freq.    3080.98  E(vib)   ...       0.00
freq.    3172.29  E(vib)   ...       0.00
freq.    3209.30  E(vib)   ...       0.00
freq.    3763.07  E(vib)   ...       0.00
freq.    3846.36  E(vib)   ...       0.00

------------
INNER ENERGY
------------

The inner energy is: U= E(el) + E(ZPE) + E(vib) + E(rot) + E(trans)
    E(el)   - is the total energy from the electronic structure calculation
              = E(kin-el) + E(nuc-el) + E(el-el) + E(nuc-nuc)
    E(ZPE)  - the the zero temperature vibrational energy from the frequency calculation
    E(vib)  - the the finite temperature correction to E(ZPE) due to population
              of excited vibrational states
    E(rot)  - is the rotational thermal energy
    E(trans)- is the translational thermal energy

Summary of contributions to the inner energy U:
Electronic energy                ...   -321.45726547 Eh
Zero point energy                ...      0.07115196 Eh      44.65 kcal/mol
Thermal vibrational correction   ...      0.00374779 Eh       2.35 kcal/mol
Thermal rotational correction    ...      0.00141627 Eh       0.89 kcal/mol
Thermal translational correction ...      0.00141627 Eh       0.89 kcal/mol
-----------------------------------------------------------------------
Total thermal energy                   -321.37953317 Eh

Summary of corrections to the electronic energy:
(perhaps to be used in another calculation)
Total thermal correction                  0.00658034 Eh       4.13 kcal/mol
Non-thermal (ZPE) correction              0.07115196 Eh      44.65 kcal/mol
-----------------------------------------------------------------------
Total correction                          0.07773229 Eh      48.78 kcal/mol

--------
ENTHALPY
--------

The enthalpy is H = U + kB*T
                kB is Boltzmann's constant
Total free energy                 ...   -321.37953317 Eh
Thermal Enthalpy correction       ...      0.00094421 Eh       0.59 kcal/mol
-----------------------------------------------------------------------
Total Enthalpy                    ...   -321.37858897 Eh

Note: Only C1 symmetry has been detected, increase convergence thresholds
      if your molecule has a higher symmetry. Symmetry factor of 1.0 is
      used for the rotational entropy correction.

Note: Rotational entropy computed according to Herzberg
Infrared and Raman Spectra, Chapter V,1, Van Nostrand Reinhold, 1945
Point Group:  C1, Symmetry Number:   1
Rotational constants in cm-1:     0.375005     0.047571     0.043180

Vibrational entropy computed according to the QRRHO of S. Grimme
Chem.Eur.J. 2012 18 9955

-------
ENTROPY
-------

The entropy contributions are T*S = T*(S(el)+S(vib)+S(rot)+S(trans))
     S(el)   - electronic entropy
     S(vib)  - vibrational entropy
     S(rot)  - rotational entropy
     S(trans)- translational entropy
The entropies will be listed as multiplied by the temperature to get
units of energy

Electronic entropy                ...      0.00000000 Eh      0.00 kcal/mol
Vibrational entropy               ...      0.00718142 Eh      4.51 kcal/mol
Rotational entropy                ...      0.01289509 Eh      8.09 kcal/mol
Translational entropy             ...      0.01853838 Eh     11.63 kcal/mol
-----------------------------------------------------------------------
Final entropy term                ...      0.03861489 Eh     24.23 kcal/mol

In case the symmetry of your molecule has not been determined correctly
or in case you have a reason to use a different symmetry number we print
out the resulting rotational entropy values for sn=1,12 :
 --------------------------------------------------------
|  sn= 1 | S(rot)=       0.01289509 Eh      8.09 kcal/mol|
|  sn= 2 | S(rot)=       0.01224063 Eh      7.68 kcal/mol|
|  sn= 3 | S(rot)=       0.01185780 Eh      7.44 kcal/mol|
|  sn= 4 | S(rot)=       0.01158618 Eh      7.27 kcal/mol|
|  sn= 5 | S(rot)=       0.01137549 Eh      7.14 kcal/mol|
|  sn= 6 | S(rot)=       0.01120334 Eh      7.03 kcal/mol|
|  sn= 7 | S(rot)=       0.01105780 Eh      6.94 kcal/mol|
|  sn= 8 | S(rot)=       0.01093172 Eh      6.86 kcal/mol|
|  sn= 9 | S(rot)=       0.01082051 Eh      6.79 kcal/mol|
|  sn=10 | S(rot)=       0.01072103 Eh      6.73 kcal/mol|
|  sn=11 | S(rot)=       0.01063104 Eh      6.67 kcal/mol|
|  sn=12 | S(rot)=       0.01054889 Eh      6.62 kcal/mol|
 --------------------------------------------------------

-------------------
GIBBS FREE ENERGY
-------------------

The Gibbs free energy is G = H - T*S

Total enthalpy                    ...   -321.37858897 Eh
Total entropy correction          ...     -0.03861489 Eh    -24.23 kcal/mol
-----------------------------------------------------------------------
Final Gibbs free energy         ...   -321.41720385 Eh

For completeness - the Gibbs free energy minus the electronic energy
G-E(el)                           ...      0.04006162 Eh     25.14 kcal/mol

                             ****ORCA TERMINATED NORMALLY****
TOTAL RUN TIME: 0 days 0 hours 4 minutes 3 seconds 772 msec
