                         Program Version 5.0.4 -  RELEASE  -
|  1> !  opt B3LYP def2-TZVP CPCM D3
|  2> %pal nprocs 102 end
|  3> %cpcm epsilon 78.4 end
|  4> *xyz -1 1
|  5> C   0.88896399 3.27562149 1.95684653
|  6> C   1.38127259 1.97359172 1.87903971
|  7> C   0.50241992 0.89328412 1.7722359
|  8> C   -0.87694434 1.10897581 1.73760168
|  9> C   -1.33250299 2.4157431 1.81740849
| 10> C   -0.48502268 3.5097543 1.9274707
| 11> H   1.57890772 4.1192199 2.03998041
| 12> H   2.46430321 1.79968541 1.90239478
| 13> H   -1.56966546 0.2678311 1.64574444
| 14> Cl   -3.02909011 2.69004765 1.77700879
| 15> H   -0.87420179 4.52771779 1.98906783
| 16> C   1.06703892 -0.49940604 1.71138984
| 17> C   0.44624914 -1.42798674 2.74618955
| 18> H   0.92680897 -2.41733659 2.76317606
| 19> H   -0.62830048 -1.59213476 2.5845787
| 20> H   0.5467835 -1.00558991 3.75905726
| 21> N   0.81634451 -1.06874468 0.34376088
| 22> O   1.7729899 -1.47287178 -0.29871304
| 23> O   -0.32410303 -1.11560849 -0.08583272
| 24> H   2.19886469 -0.46790252 1.8622171
| 25> O   6.54596097 0.07100014 2.5736777
| 26> H   6.86811431 0.68490917 1.96909017
| 27> H   5.28182888 -0.05549475 2.22059855
| 28> H   4.1957937 -0.74635654 1.18318232
| 29> O   4.18898874 -0.15533578 1.9091176
| 30> *
| 31>
| 32>                          ****END OF INPUT****
 Total Charge           Charge          ....   -1
 Multiplicity           Mult            ....    1
 Number of Electrons    NEL             ....  116
 Basis Dimension        Dim             ....  506

ORBITAL ENERGIES
----------------

  NO   OCC          E(Eh)            E(eV)
   0   2.0000    -101.526806     -2762.6848
   1   2.0000     -19.167906      -521.5852
   2   2.0000     -19.167506      -521.5744
   3   2.0000     -19.047893      -518.3195
   4   2.0000     -19.011392      -517.3263
   5   2.0000     -14.551623      -395.9698
   6   2.0000     -10.235452      -278.5208
   7   2.0000     -10.230463      -278.3850
   8   2.0000     -10.196323      -277.4561
   9   2.0000     -10.186266      -277.1824
  10   2.0000     -10.186062      -277.1768
  11   2.0000     -10.183486      -277.1067
  12   2.0000     -10.179585      -277.0006
  13   2.0000     -10.173247      -276.8281
  14   2.0000      -9.459636      -257.4098
  15   2.0000      -7.220797      -196.4879
  16   2.0000      -7.212857      -196.2718
  17   2.0000      -7.212474      -196.2614
  18   2.0000      -1.241662       -33.7873
  19   2.0000      -1.063894       -28.9500
  20   2.0000      -0.931631       -25.3510
  21   2.0000      -0.902015       -24.5451
  22   2.0000      -0.877895       -23.8887
  23   2.0000      -0.861073       -23.4310
  24   2.0000      -0.822957       -22.3938
  25   2.0000      -0.753281       -20.4978
  26   2.0000      -0.734042       -19.9743
  27   2.0000      -0.700144       -19.0519
  28   2.0000      -0.634911       -17.2768
  29   2.0000      -0.607336       -16.5265
  30   2.0000      -0.583337       -15.8734
  31   2.0000      -0.547825       -14.9071
  32   2.0000      -0.535645       -14.5756
  33   2.0000      -0.529461       -14.4074
  34   2.0000      -0.510188       -13.8829
  35   2.0000      -0.481829       -13.1112
  36   2.0000      -0.461676       -12.5628
  37   2.0000      -0.455417       -12.3925
  38   2.0000      -0.440859       -11.9964
  39   2.0000      -0.428631       -11.6636
  40   2.0000      -0.410460       -11.1692
  41   2.0000      -0.405267       -11.0279
  42   2.0000      -0.396303       -10.7840
  43   2.0000      -0.375268       -10.2115
  44   2.0000      -0.373271       -10.1572
  45   2.0000      -0.362493        -9.8639
  46   2.0000      -0.358647        -9.7593
  47   2.0000      -0.339672        -9.2430
  48   2.0000      -0.328584        -8.9412
  49   2.0000      -0.326868        -8.8945
  50   2.0000      -0.319577        -8.6961
  51   2.0000      -0.315358        -8.5813
  52   2.0000      -0.302958        -8.2439
  53   2.0000      -0.264734        -7.2038
  54   2.0000      -0.257001        -6.9934
  55   2.0000      -0.250251        -6.8097
  56   2.0000      -0.225951        -6.1484
  57   2.0000      -0.218624        -5.9491
  58   0.0000      -0.080928        -2.2022
  59   0.0000      -0.027108        -0.7377
  60   0.0000      -0.021284        -0.5792
  61   0.0000       0.032541         0.8855
  62   0.0000       0.050507         1.3744

MULLIKEN ATOMIC CHARGES
-----------------------
   0 C :   -0.104038
   1 C :   -0.207261
   2 C :    0.103957
   3 C :   -0.290205
   4 C :    0.221648
   5 C :   -0.222988
   6 H :    0.149533
   7 H :    0.139725
   8 H :    0.152604
   9 Cl:   -0.134585
  10 H :    0.150497
  11 C :    0.076292
  12 C :   -0.404322
  13 H :    0.144681
  14 H :    0.144084
  15 H :    0.144156
  16 N :    0.443701
  17 O :   -0.347933
  18 O :   -0.350721
  19 H :    0.107839
  20 O :   -1.016237
  21 H :    0.275460
  22 H :    0.355948
  23 H :    0.298491
  24 O :   -0.830326
Sum of atomic charges:   -1.0000000

LOEWDIN ATOMIC CHARGES
----------------------
   0 C :   -0.129241
   1 C :   -0.104981
   2 C :   -0.133944
   3 C :   -0.111064
   4 C :   -0.445720
   5 C :   -0.142410
   6 H :    0.155679
   7 H :    0.154875
   8 H :    0.159839
   9 Cl:    0.393368
  10 H :    0.156144
  11 C :   -0.225303
  12 C :   -0.265090
  13 H :    0.131268
  14 H :    0.130531
  15 H :    0.141276
  16 N :   -0.027259
  17 O :   -0.050815
  18 O :   -0.037793
  19 H :    0.177995
  20 O :   -0.707396
  21 H :    0.066756
  22 H :    0.112885
  23 H :    0.100411
  24 O :   -0.500010

  Mayer bond orders larger than 0.100000
B(  0-C ,  1-C ) :   1.4023 B(  0-C ,  5-C ) :   1.3867 B(  0-C ,  6-H ) :   0.9717
B(  1-C ,  2-C ) :   1.3739 B(  1-C ,  7-H ) :   0.9381 B(  2-C ,  3-C ) :   1.3504
B(  2-C , 11-C ) :   0.8848 B(  3-C ,  4-C ) :   1.3867 B(  3-C ,  8-H ) :   0.9584
B(  4-C ,  5-C ) :   1.3413 B(  4-C ,  9-Cl) :   0.9140 B(  5-C , 10-H ) :   0.9729
B( 11-C , 12-C ) :   0.9507 B( 11-C , 16-N ) :   0.8319 B( 11-C , 19-H ) :   0.8871
B( 12-C , 13-H ) :   0.9680 B( 12-C , 14-H ) :   0.9545 B( 12-C , 15-H ) :   0.9665
B( 16-N , 17-O ) :   1.6036 B( 16-N , 18-O ) :   1.6157 B( 17-O , 18-O ) :   0.2041
B( 19-H , 24-O ) :   0.1899 B( 20-O , 21-H ) :   0.9380 B( 20-O , 22-H ) :   0.4151
B( 22-H , 24-O ) :   0.5522 B( 23-H , 24-O ) :   0.9104

Dispersion correction           -0.045866751
FINAL SINGLE POINT ENERGY     -1127.280311389966
Dispersion correction            ... done
Dispersion correction           -0.045740658
FINAL SINGLE POINT ENERGY     -1127.287344377304
Dispersion correction            ... done
Dispersion correction           -0.045707134
FINAL SINGLE POINT ENERGY     -1127.286592239979
Dispersion correction            ... done
FINAL SINGLE POINT ENERGY     -1127.288333170585
FINAL SINGLE POINT ENERGY     -1127.288512643837
FINAL SINGLE POINT ENERGY     -1127.288658668358
FINAL SINGLE POINT ENERGY     -1127.288730086485
FINAL SINGLE POINT ENERGY     -1127.288804760643
FINAL SINGLE POINT ENERGY     -1127.288911231575
FINAL SINGLE POINT ENERGY     -1127.289020402687
FINAL SINGLE POINT ENERGY     -1127.293264352361
FINAL SINGLE POINT ENERGY     -1127.293266984629
FINAL SINGLE POINT ENERGY     -1127.293270244175
FINAL SINGLE POINT ENERGY     -1127.293272753706
FINAL SINGLE POINT ENERGY     -1127.293275766325
FINAL SINGLE POINT ENERGY     -1127.293282861584
FINAL SINGLE POINT ENERGY     -1127.293287963564
Dispersion correction           -0.045958488
FINAL SINGLE POINT ENERGY     -1127.293294660516
Dispersion correction            ... done
Dispersion correction           -0.045957266
FINAL SINGLE POINT ENERGY     -1127.293295336112
Dispersion correction            ... done

CARTESIAN COORDINATES (ANGSTROEM)
---------------------------------
  C      0.752558    3.328748    2.004414
  C      1.307239    2.053589    1.966755
  C      0.493120    0.941621    1.770425
  C     -0.882350    1.113730    1.611097
  C     -1.414084    2.392839    1.641847
  C     -0.614847    3.511649    1.839656
  H      1.388920    4.190780    2.158367
  H      2.373569    1.911615    2.086874
  H     -1.533141    0.262763    1.458112
  Cl    -3.142355    2.602254    1.428817
  H     -1.053445    4.499495    1.862399
  C      1.092654   -0.443954    1.775752
  C      0.601270   -1.322925    2.909338
  H      1.096560   -2.292460    2.896371
  H     -0.477933   -1.474235    2.872017
  H      0.847152   -0.824018    3.847581
  N      0.846151   -1.095204    0.423106
  O      1.142588   -0.444253   -0.569895
  O      0.414167   -2.236360    0.377383
  H      2.200539   -0.360246    1.799625
  O      6.495969   -0.849072    2.117067
  H      6.939693   -0.150561    2.609542
  H      5.523002   -0.506172    1.967318
  H      4.057875    0.564910    1.050706
  O      4.096935   -0.061920    1.781614

Dispersion correction           -0.045955694
FINAL SINGLE POINT ENERGY     -1127.293300042747
Dispersion correction            ... done

DIPOLE MOMENT
-------------
                                X             Y             Z
Electronic contribution:    -25.55068       8.29290      -6.34455
Nuclear contribution   :     19.07247      -4.80861       7.77816
                        -----------------------------------------
Total Dipole Moment    :     -6.47821       3.48429       1.43361
                        -----------------------------------------
Magnitude (a.u.)       :      7.49418
Magnitude (Debye)      :     19.04870

Rotational constants in cm-1:     0.028202     0.009077     0.007606
Rotational constants in MHz :   845.471837   272.121791   228.022860

                             ****ORCA TERMINATED NORMALLY****
TOTAL RUN TIME: 0 days 1 hours 7 minutes 38 seconds 777 msec
