                         Program Version 5.0.4 -  RELEASE  -
|  1> !  NUMFREQ B3LYP def2-TZVP CPCM D3
|  2> %pal nprocs 102 end
|  3> %cpcm epsilon 78.4 end
|  4> *xyz 0 1
|  5> C   -3.43590126986819 1.62827858923163 0.03348448744325
|  6> H   -4.30045060393109 1.63504097995275 -0.62049846247739
|  7> N   -4.5503852382127 -0.05770037148476 1.44862935356727
|  8> O   -5.59227870671658 0.05137955733031 0.7856524821967
|  9> O   -4.51536324518204 -0.71602820688914 2.50148803421374
| 10> H   -1.62670502095901 2.59983837119339 0.5450242056216
| 11> C   -3.32766140048286 0.48833485995517 0.95285556892107
| 12> H   -2.83108900097449 -0.52420901829676 0.26126113305814
| 13> H   -2.63224526096528 0.60384681750157 1.77854410457971
| 14> C   -2.50827361460643 2.57926150959432 -0.08646230930846
| 15> H   -2.60197871658528 3.36203073698079 -0.82817263366048
| 16> C   1.13003771704476 -1.54226335134196 -0.01113719743779
| 17> C   2.45519625058382 -1.14483820726731 0.01393841308727
| 18> C   2.77021641781136 0.13059980320805 -0.49351001092717
| 19> C   1.73689172282685 0.92247135008101 -0.99342522631331
| 20> C   0.43883084444291 0.45582811257506 -0.98337309797209
| 21> N   0.16150878644831 -0.7567736328622 -0.49759492936699
| 22> H   0.81613994006464 -2.50778044640303 0.36298677995863
| 23> H   1.94536171151525 1.90690165701082 -1.38949192607746
| 24> H   -0.39911471227142 1.03142733953187 -1.35042969174716
| 25> C   3.50832009783417 -2.05550003454713 0.56843853582896
| 26> H   4.02632002741885 -1.58449753095319 1.40712786918324
| 27> H   4.26329372372352 -2.28127318959558 -0.18821216071129
| 28> H   3.07181746184515 -2.99173408768091 0.91249946851097
| 29> C   4.18150937133805 0.62531921453191 -0.49462147916662
| 30> H   4.24831190879161 1.6238877132078 -0.92188872254792
| 31> H   4.823441019375 -0.04799903712755 -1.06805220200262
| 32> H   4.57997680954552 0.64900483256407 0.52285130605062
| 33> H   -0.92756920572266 -1.11326445951601 -0.4861242322023
| 34> O   -2.25542666727211 -1.49466781345296 -0.40075177960311
| 35> H   -2.65273114685968 -1.47492205703202 -1.28103568069904
| 36> *
| 37>
| 38>                          ****END OF INPUT****

CARTESIAN COORDINATES (ANGSTROEM)
---------------------------------
  C     -3.435901    1.628279    0.033484
  H     -4.300451    1.635041   -0.620498
  N     -4.550385   -0.057700    1.448629
  O     -5.592279    0.051380    0.785652
  O     -4.515363   -0.716028    2.501488
  H     -1.626705    2.599838    0.545024
  C     -3.327661    0.488335    0.952856
  H     -2.831089   -0.524209    0.261261
  H     -2.632245    0.603847    1.778544
  C     -2.508274    2.579262   -0.086462
  H     -2.601979    3.362031   -0.828173
  C      1.130038   -1.542263   -0.011137
  C      2.455196   -1.144838    0.013938
  C      2.770216    0.130600   -0.493510
  C      1.736892    0.922471   -0.993425
  C      0.438831    0.455828   -0.983373
  N      0.161509   -0.756774   -0.497595
  H      0.816140   -2.507780    0.362987
  H      1.945362    1.906902   -1.389492
  H     -0.399115    1.031427   -1.350430
  C      3.508320   -2.055500    0.568439
  H      4.026320   -1.584498    1.407128
  H      4.263294   -2.281273   -0.188212
  H      3.071817   -2.991734    0.912499
  C      4.181509    0.625319   -0.494621
  H      4.248312    1.623888   -0.921889
  H      4.823441   -0.047999   -1.068052
  H      4.579977    0.649005    0.522851
  H     -0.927569   -1.113264   -0.486124
  O     -2.255427   -1.494668   -0.400752
  H     -2.652731   -1.474922   -1.281036

 Total Charge           Charge          ....    0
 Multiplicity           Mult            ....    1
 Number of Electrons    NEL             ....  114
 Basis Dimension        Dim             ....  561

ORBITAL ENERGIES
----------------

  NO   OCC          E(Eh)            E(eV)
   0   2.0000     -19.135916      -520.7147
   1   2.0000     -19.134188      -520.6677
   2   2.0000     -19.086594      -519.3726
   3   2.0000     -14.526238      -395.2790
   4   2.0000     -14.375875      -391.1875
   5   2.0000     -10.232896      -278.4513
   6   2.0000     -10.232017      -278.4273
   7   2.0000     -10.216523      -278.0057
   8   2.0000     -10.205977      -277.7188
   9   2.0000     -10.194552      -277.4079
  10   2.0000     -10.185194      -277.1532
  11   2.0000     -10.175379      -276.8862
  12   2.0000     -10.171352      -276.7766
  13   2.0000     -10.170527      -276.7541
  14   2.0000     -10.156291      -276.3667
  15   2.0000      -1.201450       -32.6931
  16   2.0000      -1.024718       -27.8840
  17   2.0000      -0.998099       -27.1597
  18   2.0000      -0.947372       -25.7793
  19   2.0000      -0.851008       -23.1571
  20   2.0000      -0.820706       -22.3326
  21   2.0000      -0.802438       -21.8355
  22   2.0000      -0.745102       -20.2752
  23   2.0000      -0.734191       -19.9783
  24   2.0000      -0.714716       -19.4484
  25   2.0000      -0.640954       -17.4413
  26   2.0000      -0.619853       -16.8671
  27   2.0000      -0.607994       -16.5444
  28   2.0000      -0.565281       -15.3821
  29   2.0000      -0.556146       -15.1335
  30   2.0000      -0.528474       -14.3805
  31   2.0000      -0.525025       -14.2867
  32   2.0000      -0.524389       -14.2694
  33   2.0000      -0.501417       -13.6443
  34   2.0000      -0.481985       -13.1155
  35   2.0000      -0.466789       -12.7020
  36   2.0000      -0.457326       -12.4445
  37   2.0000      -0.452524       -12.3138
  38   2.0000      -0.442889       -12.0516
  39   2.0000      -0.427598       -11.6355
  40   2.0000      -0.420263       -11.4359
  41   2.0000      -0.416767       -11.3408
  42   2.0000      -0.408879       -11.1262
  43   2.0000      -0.406413       -11.0591
  44   2.0000      -0.398427       -10.8417
  45   2.0000      -0.384910       -10.4739
  46   2.0000      -0.368065       -10.0156
  47   2.0000      -0.361817        -9.8455
  48   2.0000      -0.351853        -9.5744
  49   2.0000      -0.305913        -8.3243
  50   2.0000      -0.302872        -8.2416
  51   2.0000      -0.300334        -8.1725
  52   2.0000      -0.292913        -7.9706
  53   2.0000      -0.284910        -7.7528
  54   2.0000      -0.279409        -7.6031
  55   2.0000      -0.278220        -7.5708
  56   2.0000      -0.218371        -5.9422
  57   0.0000      -0.060283        -1.6404
  58   0.0000      -0.054279        -1.4770
  59   0.0000      -0.033707        -0.9172
  60   0.0000       0.009380         0.2552
  61   0.0000       0.040852         1.1116

MULLIKEN ATOMIC CHARGES
-----------------------
   0 C :   -0.102570
   1 H :    0.134960
   2 N :    0.427779
   3 O :   -0.431299
   4 O :   -0.439563
   5 H :    0.142525
   6 C :   -0.256413
   7 H :    0.304217
   8 H :    0.139736
   9 C :   -0.378332
  10 H :    0.139482
  11 C :   -0.031915
  12 C :    0.081304
  13 C :    0.055918
  14 C :   -0.152572
  15 C :   -0.012858
  16 N :   -0.142338
  17 H :    0.176154
  18 H :    0.163361
  19 H :    0.202735
  20 C :   -0.368566
  21 H :    0.146016
  22 H :    0.146323
  23 H :    0.140370
  24 C :   -0.374478
  25 H :    0.141792
  26 H :    0.150632
  27 H :    0.150722
  28 H :    0.302775
  29 O :   -0.788256
  30 H :    0.332361
Sum of atomic charges:    0.0000000

LOEWDIN ATOMIC CHARGES
----------------------
   0 C :   -0.229416
   1 H :    0.144662
   2 N :   -0.058392
   3 O :   -0.135578
   4 O :   -0.147187
   5 H :    0.123302
   6 C :   -0.304538
   7 H :    0.178231
   8 H :    0.143575
   9 C :   -0.236986
  10 H :    0.123217
  11 C :   -0.113324
  12 C :   -0.128049
  13 C :   -0.093900
  14 C :   -0.093106
  15 C :   -0.140822
  16 N :    0.234310
  17 H :    0.160315
  18 H :    0.164442
  19 H :    0.155890
  20 C :   -0.233667
  21 H :    0.139203
  22 H :    0.139209
  23 H :    0.135459
  24 C :   -0.228199
  25 H :    0.135123
  26 H :    0.143176
  27 H :    0.143244
  28 H :    0.174285
  29 O :   -0.433577
  30 H :    0.139096

  Mayer bond orders larger than 0.100000
B(  0-C ,  1-H ) :   0.9452 B(  0-C ,  6-C ) :   0.9872 B(  0-C ,  9-C ) :   1.8441
B(  2-N ,  3-O ) :   1.5184 B(  2-N ,  4-O ) :   1.5019 B(  2-N ,  6-C ) :   1.0357
B(  3-O ,  4-O ) :   0.1398 B(  5-H ,  9-C ) :   0.9672 B(  6-C ,  7-H ) :   0.4838
B(  6-C ,  8-H ) :   0.9432 B(  7-H , 29-O ) :   0.4487 B(  9-C , 10-H ) :   0.9707
B( 11-C , 12-C ) :   1.4613 B( 11-C , 16-N ) :   1.3263 B( 11-C , 17-H ) :   0.9386
B( 12-C , 13-C ) :   1.2919 B( 12-C , 20-C ) :   0.9363 B( 13-C , 14-C ) :   1.3906
B( 13-C , 24-C ) :   0.9507 B( 14-C , 15-C ) :   1.4545 B( 14-C , 18-H ) :   0.9543
B( 15-C , 16-N ) :   1.3192 B( 15-C , 19-H ) :   0.9304 B( 16-N , 28-H ) :   0.6058
B( 20-C , 21-H ) :   0.9622 B( 20-C , 22-H ) :   0.9622 B( 20-C , 23-H ) :   0.9758
B( 24-C , 25-H ) :   0.9764 B( 24-C , 26-H ) :   0.9573 B( 24-C , 27-H ) :   0.9565
B( 28-H , 29-O ) :   0.3596 B( 29-O , 30-H ) :   0.8895

Dispersion correction           -0.051329953
FINAL SINGLE POINT ENERGY      -725.689541473137
Dispersion correction            ... done

DIPOLE MOMENT
-------------
                                X             Y             Z
Electronic contribution:    -13.18918      -1.46528       2.53961
Nuclear contribution   :     20.76762       2.21398      -4.93307
                        -----------------------------------------
Total Dipole Moment    :      7.57844       0.74870      -2.39346
                        -----------------------------------------
Magnitude (a.u.)       :      7.98261
Magnitude (Debye)      :     20.29018

VIBRATIONAL FREQUENCIES
-----------------------

Scaling factor for frequencies =  1.000000000 (already applied!)

   0:         0.00 cm**-1
   1:         0.00 cm**-1
   2:         0.00 cm**-1
   3:         0.00 cm**-1
   4:         0.00 cm**-1
   5:         0.00 cm**-1
   6:     -1314.57 cm**-1 ***imaginary mode***
   7:        17.09 cm**-1
   8:        24.17 cm**-1
   9:        35.68 cm**-1
  10:        58.41 cm**-1
  11:        72.24 cm**-1
  12:        78.61 cm**-1
  13:        94.83 cm**-1
  14:       111.99 cm**-1
  15:       142.21 cm**-1
  16:       170.29 cm**-1
  17:       175.71 cm**-1
  18:       185.02 cm**-1
  19:       227.40 cm**-1
  20:       275.96 cm**-1
  21:       289.52 cm**-1
  22:       311.45 cm**-1
  23:       399.65 cm**-1
  24:       412.47 cm**-1
  25:       434.99 cm**-1
  26:       443.59 cm**-1
  27:       492.24 cm**-1
  28:       520.38 cm**-1
  29:       541.72 cm**-1
  30:       554.83 cm**-1
  31:       594.01 cm**-1
  32:       611.97 cm**-1
  33:       689.04 cm**-1
  34:       735.51 cm**-1
  35:       739.94 cm**-1
  36:       765.90 cm**-1
  37:       768.35 cm**-1
  38:       807.67 cm**-1
  39:       848.91 cm**-1
  40:       910.66 cm**-1
  41:       937.71 cm**-1
  42:       939.27 cm**-1
  43:       958.99 cm**-1
  44:       995.86 cm**-1
  45:      1006.52 cm**-1
  46:      1030.67 cm**-1
  47:      1033.32 cm**-1
  48:      1038.55 cm**-1
  49:      1049.53 cm**-1
  50:      1079.93 cm**-1
  51:      1087.44 cm**-1
  52:      1175.34 cm**-1
  53:      1190.06 cm**-1
  54:      1207.44 cm**-1
  55:      1262.16 cm**-1
  56:      1281.54 cm**-1
  57:      1303.98 cm**-1
  58:      1314.26 cm**-1
  59:      1327.87 cm**-1
  60:      1340.62 cm**-1
  61:      1390.25 cm**-1
  62:      1401.25 cm**-1
  63:      1406.83 cm**-1
  64:      1419.19 cm**-1
  65:      1428.03 cm**-1
  66:      1443.47 cm**-1
  67:      1463.43 cm**-1
  68:      1471.07 cm**-1
  69:      1473.77 cm**-1
  70:      1477.06 cm**-1
  71:      1482.48 cm**-1
  72:      1488.27 cm**-1
  73:      1524.83 cm**-1
  74:      1548.91 cm**-1
  75:      1586.69 cm**-1
  76:      1672.88 cm**-1
  77:      1676.72 cm**-1
  78:      1695.10 cm**-1
  79:      3033.34 cm**-1
  80:      3035.90 cm**-1
  81:      3078.73 cm**-1
  82:      3083.47 cm**-1
  83:      3123.91 cm**-1
  84:      3127.51 cm**-1
  85:      3129.00 cm**-1
  86:      3141.21 cm**-1
  87:      3167.92 cm**-1
  88:      3199.48 cm**-1
  89:      3202.54 cm**-1
  90:      3215.37 cm**-1
  91:      3217.28 cm**-1
  92:      3782.07 cm**-1

IR SPECTRUM
-----------

 Mode   freq       eps      Int      T**2         TX        TY        TZ
       cm**-1   L/(mol*cm) km/mol    a.u.
----------------------------------------------------------------------------
  7:     17.09   0.000060    0.31  0.001103  ( 0.022543 -0.015398 -0.018905)
  8:     24.17   0.000453    2.29  0.005855  ( 0.071457 -0.019512  0.019202)
  9:     35.68   0.000052    0.26  0.000451  (-0.000435  0.021209 -0.000777)
 10:     58.41   0.000070    0.35  0.000375  ( 0.012309 -0.002060  0.014800)
 11:     72.24   0.000464    2.35  0.002006  ( 0.035248 -0.019715 -0.019372)
 12:     78.61   0.000685    3.46  0.002718  ( 0.030872 -0.041946 -0.002373)
 13:     94.83   0.001295    6.54  0.004261  (-0.057443 -0.008610 -0.029783)
 14:    111.99   0.003456   17.47  0.009631  (-0.092319  0.008478  0.032196)
 15:    142.21   0.000071    0.36  0.000156  ( 0.003009 -0.006516 -0.010241)
 16:    170.29   0.001579    7.98  0.002894  (-0.039768  0.024146  0.027000)
 17:    175.71   0.000221    1.12  0.000392  ( 0.000537 -0.006078 -0.018836)
 18:    185.02   0.000217    1.10  0.000366  ( 0.013514  0.012957 -0.003956)
 19:    227.40   0.002052   10.37  0.002816  ( 0.039848 -0.003980  0.034816)
 20:    275.96   0.002573   13.00  0.002909  (-0.018264 -0.036386 -0.035377)
 21:    289.52   0.061392  310.25  0.066173  ( 0.191923  0.162958  0.052761)
 22:    311.45   0.012318   62.25  0.012342  ( 0.080473  0.073993  0.019780)
 23:    399.65   0.002132   10.77  0.001665  (-0.005330 -0.038631 -0.012001)
 24:    412.47   0.001187    6.00  0.000898  ( 0.023131  0.017095 -0.008432)
 25:    434.99   0.025087  126.78  0.017998  (-0.084791 -0.102193  0.019102)
 26:    443.59   0.006859   34.66  0.004825  (-0.029786 -0.055148 -0.029949)
 27:    492.24   0.023665  119.59  0.015003  (-0.114665 -0.043066  0.000173)
 28:    520.38   0.010915   55.16  0.006545  ( 0.013670 -0.025093 -0.075689)
 29:    541.72   0.000978    4.94  0.000563  ( 0.017141  0.013751 -0.008958)
 30:    554.83   0.004566   23.07  0.002568  (-0.001808 -0.047500 -0.017563)
 31:    594.01   0.014246   71.99  0.007484  ( 0.033731  0.072545  0.032919)
 32:    611.97   0.011550   58.37  0.005890  (-0.074747 -0.014700 -0.009306)
 33:    689.04   0.001931    9.76  0.000874  ( 0.022993  0.018583  0.000584)
 34:    735.51   0.009327   47.14  0.003957  (-0.054128  0.027702  0.016131)
 35:    739.94   0.002419   12.22  0.001020  ( 0.004347 -0.013456 -0.028638)
 36:    765.90   0.002839   14.35  0.001157  (-0.023814 -0.021014 -0.012173)
 37:    768.35   0.000105    0.53  0.000043  (-0.000538  0.005511 -0.003482)
 38:    807.67   0.062480  315.75  0.024141  ( 0.131690  0.071234  0.041521)
 39:    848.91   0.012712   64.24  0.004673  (-0.023397  0.021916  0.060378)
 40:    910.66   0.021279  107.54  0.007292  (-0.040628  0.055555  0.050548)
 41:    937.71   0.001319    6.66  0.000439  (-0.005311  0.005596  0.019475)
 42:    939.27   0.001749    8.84  0.000581  ( 0.008159 -0.021163  0.008153)
 43:    958.99   0.003526   17.82  0.001147  ( 0.012727 -0.029580 -0.010510)
 44:    995.86   0.001281    6.47  0.000401  (-0.014930  0.001238  0.013302)
 45:   1006.52   0.026333  133.08  0.008164  ( 0.080299  0.039620  0.012110)
 46:   1030.67   0.001964    9.92  0.000595  ( 0.019057  0.015195 -0.000724)
 47:   1033.32   0.008229   41.59  0.002485  ( 0.033158 -0.009072 -0.036103)
 48:   1038.55   0.002095   10.59  0.000630  (-0.021636  0.012269  0.003321)
 49:   1049.53   0.004028   20.36  0.001198  ( 0.005737 -0.013754 -0.031236)
 50:   1079.93   0.000005    0.02  0.000001  ( 0.000819  0.000808  0.000079)
 51:   1087.44   0.021029  106.27  0.006035  ( 0.062152  0.045740  0.008928)
 52:   1175.34   0.014341   72.47  0.003808  ( 0.056210  0.025049 -0.004532)
 53:   1190.06   0.017978   90.85  0.004714  ( 0.058994  0.034901  0.004001)
 54:   1207.44   0.012370   62.51  0.003197  ( 0.050410  0.024693  0.006784)
 55:   1262.16   0.000959    4.85  0.000237  ( 0.011232 -0.009510  0.004523)
 56:   1281.54   0.018862   95.32  0.004593  (-0.021780 -0.029145  0.057178)
 57:   1303.98   0.016919   85.50  0.004049  (-0.059105  0.015657 -0.017619)
 58:   1314.26   0.010416   52.64  0.002473  ( 0.022121 -0.022818  0.038253)
 59:   1327.87   0.011886   60.07  0.002793  ( 0.044491  0.028491  0.001446)
 60:   1340.62   0.016405   82.90  0.003819  ( 0.050475 -0.031736  0.016242)
 61:   1390.25   0.083073  419.82  0.018647  (-0.071382 -0.103703  0.052890)
 62:   1401.25   0.006169   31.18  0.001374  ( 0.018886  0.031457 -0.005265)
 63:   1406.83   0.039420  199.21  0.008744  (-0.076958 -0.052568  0.007636)
 64:   1419.19   0.000473    2.39  0.000104  ( 0.001198  0.003513  0.009501)
 65:   1428.03   0.023865  120.60  0.005215  (-0.039166 -0.041178 -0.044559)
 66:   1443.47   0.046881  236.92  0.010135  (-0.060972  0.036304 -0.071412)
 67:   1463.43   0.000252    1.27  0.000054  ( 0.005837 -0.000463 -0.004410)
 68:   1471.07   0.005526   27.92  0.001172  ( 0.006497  0.033433 -0.003500)
 69:   1473.77   0.006887   34.80  0.001458  ( 0.019104 -0.001875 -0.033011)
 70:   1477.06   0.274179  1385.59  0.057927  ( 0.213048  0.111485 -0.010434)
 71:   1482.48   0.067151  339.36  0.014135  (-0.076581  0.018648 -0.089011)
 72:   1488.27   0.259720  1312.52  0.054459  (-0.220650 -0.074264 -0.016035)
 73:   1524.83   0.057790  292.05  0.011827  (-0.103221 -0.002533 -0.034145)
 74:   1548.91   0.219059  1107.03  0.044134  ( 0.197640  0.065127  0.028833)
 75:   1586.69   0.003160   15.97  0.000622  ( 0.017563 -0.012342  0.012679)
 76:   1672.88   0.104096  526.06  0.019418  ( 0.127102  0.057023 -0.003438)
 77:   1676.72   0.003434   17.35  0.000639  (-0.002067  0.011317 -0.022511)
 78:   1695.10   0.026945  136.17  0.004961  ( 0.040577  0.053685 -0.020784)
 79:   3033.34   0.001263    6.38  0.000130  ( 0.011229  0.000004  0.001965)
 80:   3035.90   0.001649    8.34  0.000170  (-0.008939  0.008100 -0.004902)
 81:   3078.73   0.002631   13.29  0.000267  ( 0.002611 -0.006452 -0.014772)
 82:   3083.47   0.000649    3.28  0.000066  (-0.000828  0.003211  0.007392)
 83:   3123.91   0.004083   20.63  0.000408  ( 0.007860  0.017438 -0.006480)
 84:   3127.51   0.003059   15.46  0.000305  ( 0.003630  0.015929 -0.006191)
 85:   3129.00   0.001543    7.80  0.000154  (-0.010945 -0.005184 -0.002690)
 86:   3141.21   0.000916    4.63  0.000091  (-0.007711  0.004061 -0.003874)
 87:   3167.92   0.000788    3.98  0.000078  ( 0.001042 -0.003695  0.007932)
 88:   3199.48   0.000298    1.51  0.000029  ( 0.003219 -0.004232  0.000898)
 89:   3202.54   0.000115    0.58  0.000011  ( 0.001468 -0.002541  0.001606)
 90:   3215.37   0.003089   15.61  0.000300  ( 0.006976 -0.007892  0.013741)
 91:   3217.28   0.000974    4.92  0.000094  (-0.008973  0.003337 -0.001671)
 92:   3782.07   0.008807   44.51  0.000727  (-0.007869 -0.005782 -0.025126)

--------------------------
THERMOCHEMISTRY AT 298.15K
--------------------------

Temperature         ... 298.15 K
Pressure            ... 1.00 atm
Total Mass          ... 212.25 AMU

Throughout the following assumptions are being made:
  (1) The electronic state is orbitally nondegenerate
  (2) There are no thermally accessible electronically excited states
  (3) Hindered rotations indicated by low frequency modes are not
      treated as such but are treated as vibrations and this may
      cause some error
  (4) All equations used are the standard statistical mechanics
      equations for an ideal gas
  (5) All vibrations are strictly harmonic

freq.      17.09  E(vib)   ...       0.57
freq.      24.17  E(vib)   ...       0.56
freq.      35.68  E(vib)   ...       0.54
freq.      58.41  E(vib)   ...       0.51
freq.      72.24  E(vib)   ...       0.50
freq.      78.61  E(vib)   ...       0.49
freq.      94.83  E(vib)   ...       0.47
freq.     111.99  E(vib)   ...       0.45
freq.     142.21  E(vib)   ...       0.41
freq.     170.29  E(vib)   ...       0.38
freq.     175.71  E(vib)   ...       0.38
freq.     185.02  E(vib)   ...       0.37
freq.     227.40  E(vib)   ...       0.33
freq.     275.96  E(vib)   ...       0.28
freq.     289.52  E(vib)   ...       0.27
freq.     311.45  E(vib)   ...       0.25
freq.     399.65  E(vib)   ...       0.19
freq.     412.47  E(vib)   ...       0.19
freq.     434.99  E(vib)   ...       0.17
freq.     443.59  E(vib)   ...       0.17
freq.     492.24  E(vib)   ...       0.14
freq.     520.38  E(vib)   ...       0.13
freq.     541.72  E(vib)   ...       0.12
freq.     554.83  E(vib)   ...       0.12
freq.     594.01  E(vib)   ...       0.10
freq.     611.97  E(vib)   ...       0.10
freq.     689.04  E(vib)   ...       0.07
freq.     735.51  E(vib)   ...       0.06
freq.     739.94  E(vib)   ...       0.06
freq.     765.90  E(vib)   ...       0.06
freq.     768.35  E(vib)   ...       0.06
freq.     807.67  E(vib)   ...       0.05
freq.     848.91  E(vib)   ...       0.04
freq.     910.66  E(vib)   ...       0.03
freq.     937.71  E(vib)   ...       0.03
freq.     939.27  E(vib)   ...       0.03
freq.     958.99  E(vib)   ...       0.03
freq.     995.86  E(vib)   ...       0.02
freq.    1006.52  E(vib)   ...       0.02
freq.    1030.67  E(vib)   ...       0.02
freq.    1033.32  E(vib)   ...       0.02
freq.    1038.55  E(vib)   ...       0.02
freq.    1049.53  E(vib)   ...       0.02
freq.    1079.93  E(vib)   ...       0.02
freq.    1087.44  E(vib)   ...       0.02
freq.    1175.34  E(vib)   ...       0.01
freq.    1190.06  E(vib)   ...       0.01
freq.    1207.44  E(vib)   ...       0.01
freq.    1262.16  E(vib)   ...       0.01
freq.    1281.54  E(vib)   ...       0.01
freq.    1303.98  E(vib)   ...       0.01
freq.    1314.26  E(vib)   ...       0.01
freq.    1327.87  E(vib)   ...       0.01
freq.    1340.62  E(vib)   ...       0.01
freq.    1390.25  E(vib)   ...       0.00
freq.    1401.25  E(vib)   ...       0.00
freq.    1406.83  E(vib)   ...       0.00
freq.    1419.19  E(vib)   ...       0.00
freq.    1428.03  E(vib)   ...       0.00
freq.    1443.47  E(vib)   ...       0.00
freq.    1463.43  E(vib)   ...       0.00
freq.    1471.07  E(vib)   ...       0.00
freq.    1473.77  E(vib)   ...       0.00
freq.    1477.06  E(vib)   ...       0.00
freq.    1482.48  E(vib)   ...       0.00
freq.    1488.27  E(vib)   ...       0.00
freq.    1524.83  E(vib)   ...       0.00
freq.    1548.91  E(vib)   ...       0.00
freq.    1586.69  E(vib)   ...       0.00
freq.    1672.88  E(vib)   ...       0.00
freq.    1676.72  E(vib)   ...       0.00
freq.    1695.10  E(vib)   ...       0.00
freq.    3033.34  E(vib)   ...       0.00
freq.    3035.90  E(vib)   ...       0.00
freq.    3078.73  E(vib)   ...       0.00
freq.    3083.47  E(vib)   ...       0.00
freq.    3123.91  E(vib)   ...       0.00
freq.    3127.51  E(vib)   ...       0.00
freq.    3129.00  E(vib)   ...       0.00
freq.    3141.21  E(vib)   ...       0.00
freq.    3167.92  E(vib)   ...       0.00
freq.    3199.48  E(vib)   ...       0.00
freq.    3202.54  E(vib)   ...       0.00
freq.    3215.37  E(vib)   ...       0.00
freq.    3217.28  E(vib)   ...       0.00
freq.    3782.07  E(vib)   ...       0.00

------------
INNER ENERGY
------------

The inner energy is: U= E(el) + E(ZPE) + E(vib) + E(rot) + E(trans)
    E(el)   - is the total energy from the electronic structure calculation
              = E(kin-el) + E(nuc-el) + E(el-el) + E(nuc-nuc)
    E(ZPE)  - the the zero temperature vibrational energy from the frequency calculation
    E(vib)  - the the finite temperature correction to E(ZPE) due to population
              of excited vibrational states
    E(rot)  - is the rotational thermal energy
    E(trans)- is the translational thermal energy

Summary of contributions to the inner energy U:
Electronic energy                ...   -725.68954147 Eh
Zero point energy                ...      0.24533911 Eh     153.95 kcal/mol
Thermal vibrational correction   ...      0.01433829 Eh       9.00 kcal/mol
Thermal rotational correction    ...      0.00141627 Eh       0.89 kcal/mol
Thermal translational correction ...      0.00141627 Eh       0.89 kcal/mol
-----------------------------------------------------------------------
Total thermal energy                   -725.42703153 Eh

Summary of corrections to the electronic energy:
(perhaps to be used in another calculation)
Total thermal correction                  0.01717084 Eh      10.77 kcal/mol
Non-thermal (ZPE) correction              0.24533911 Eh     153.95 kcal/mol
-----------------------------------------------------------------------
Total correction                          0.26250994 Eh     164.73 kcal/mol

--------
ENTHALPY
--------

The enthalpy is H = U + kB*T
                kB is Boltzmann's constant
Total free energy                 ...   -725.42703153 Eh
Thermal Enthalpy correction       ...      0.00094421 Eh       0.59 kcal/mol
-----------------------------------------------------------------------
Total Enthalpy                    ...   -725.42608732 Eh

Note: Only C1 symmetry has been detected, increase convergence thresholds
      if your molecule has a higher symmetry. Symmetry factor of 1.0 is
      used for the rotational entropy correction.

Note: Rotational entropy computed according to Herzberg
Infrared and Raman Spectra, Chapter V,1, Van Nostrand Reinhold, 1945
Point Group:  C1, Symmetry Number:   1
Rotational constants in cm-1:     0.037921     0.007205     0.006497

Vibrational entropy computed according to the QRRHO of S. Grimme
Chem.Eur.J. 2012 18 9955

                             ****ORCA TERMINATED NORMALLY****
TOTAL RUN TIME: 0 days 0 hours 32 minutes 57 seconds 65 msec
