                         Program Version 5.0.4 -  RELEASE  -
|  1> !  opt B3LYP def2-TZVP CPCM D3
|  2> %pal nprocs 102 end
|  3> %cpcm epsilon 78.4 end
|  4> *xyz 0 1
|  5> C   0.58278 -0.24516 -0.02623
|  6> H   0.62694 -0.36391 -1.11861
|  7> N   0.34789 -2.65843 0.26864
|  8> O   0.52101 -3.07231 -0.8696
|  9> O   -0.44516 -3.18836 1.02943
| 10> H   1.69366 -0.48363 2.56643
| 11> C   1.13503 -1.45939 0.71361
| 12> H   2.20712 -1.64611 0.40439
| 13> H   -0.459 -0.02237 0.24295
| 14> C   1.04296 -1.30405 2.22409
| 15> H   0.02383 -1.07083 2.56317
| 16> C   6.69846 -1.25761 -0.83461
| 17> C   7.93194 -1.46833 -1.45975
| 18> C   8.51864 -2.72945 -1.37087
| 19> C   7.85923 -3.73877 -0.67165
| 20> C   6.62838 -3.44773 -0.07284
| 21> N   6.06017 -2.22758 -0.1491
| 22> H   8.41917 -0.65996 -2.00297
| 23> H   9.48404 -2.92462 -1.84452
| 24> H   8.28947 -4.73621 -0.5892
| 25> H   1.17111 0.6534 0.21768
| 26> H   1.36213 -2.2107 2.75858
| 27> H   6.06879 -4.20788 0.48949
| 28> H   6.19296 -0.28332 -0.87574
| 29> H   3.71844 -1.84858 2.25942
| 30> H   4.69651 -1.48533 1.14327
| 31> O   4.12811 -1.09406 1.82657
| 32> *
| 33>
| 34>                          ****END OF INPUT****
 Total Charge           Charge          ....    0
 Multiplicity           Mult            ....    1
 Number of Electrons    NEL             ....  100
Dispersion correction           -0.039086894
FINAL SINGLE POINT ENERGY      -648.324560923180
Dispersion correction            ... done
Dispersion correction           -0.039364041
FINAL SINGLE POINT ENERGY      -648.328960348735
Dispersion correction            ... done
Dispersion correction           -0.039488508
FINAL SINGLE POINT ENERGY      -648.329086963674
Dispersion correction            ... done
FINAL SINGLE POINT ENERGY      -648.330358065957
FINAL SINGLE POINT ENERGY      -648.330745396487
FINAL SINGLE POINT ENERGY      -648.331114589992
FINAL SINGLE POINT ENERGY      -648.331485291155
FINAL SINGLE POINT ENERGY      -648.331506908142
FINAL SINGLE POINT ENERGY      -648.331917072725
FINAL SINGLE POINT ENERGY      -648.328162021737
FINAL SINGLE POINT ENERGY      -648.335341440728
FINAL SINGLE POINT ENERGY      -648.335346291709
FINAL SINGLE POINT ENERGY      -648.335347873600
FINAL SINGLE POINT ENERGY      -648.335351529975
FINAL SINGLE POINT ENERGY      -648.335353427457
FINAL SINGLE POINT ENERGY      -648.335359621497
FINAL SINGLE POINT ENERGY      -648.335363809852
Dispersion correction            ... done
Dispersion correction           -0.043812450
FINAL SINGLE POINT ENERGY      -648.335369076794
Dispersion correction            ... done
Dispersion correction           -0.043800763
FINAL SINGLE POINT ENERGY      -648.335374922088
Dispersion correction            ... done
                    ***********************HURRAY********************

CARTESIAN COORDINATES (ANGSTROEM)
---------------------------------
  C      2.236600   -0.643511   -0.382552
  H      2.856686   -0.875935   -1.248028
  N      1.623316   -3.014263   -0.229726
  O      2.437785   -3.825408   -0.643861
  O      0.424077   -3.082319   -0.446258
  H      1.730472   -0.791544    2.371237
  C      2.149311   -1.829601    0.569661
  H      3.144024   -2.146579    0.868457
  H      1.242905   -0.342937   -0.715872
  C      1.265740   -1.578190    1.776130
  H      0.272055   -1.247397    1.477292
  C      5.809146   -0.849351   -0.369247
  C      6.161407   -1.316190   -1.628273
  C      6.431522   -2.670242   -1.783583
  C      6.341091   -3.502703   -0.674783
  C      5.982143   -2.946607    0.545436
  N      5.719376   -1.645250    0.700301
  H      6.217724   -0.632137   -2.464206
  H      6.705716   -3.069808   -2.751571
  H      6.540545   -4.563077   -0.750502
  H      2.692832    0.189467    0.152344
  H      1.177164   -2.470780    2.396130
  H      5.894506   -3.564075    1.432149
  H      5.583897    0.198702   -0.209652
  H      4.042251   -1.284687    3.397326
  H      5.087250   -1.013200    2.289057
  O      4.735067   -0.663655    3.144625

 Multiplicity           Mult            ....    1
 Number of Electrons    NEL             ....  100
 Basis Dimension        Dim             ....  487

ORBITAL ENERGIES
----------------

  NO   OCC          E(Eh)            E(eV)
   0   2.0000     -19.168937      -521.6133
   1   2.0000     -19.168871      -521.6115
   2   2.0000     -19.101371      -519.7747
   3   2.0000     -14.549651      -395.9161
   4   2.0000     -14.328410      -389.8959
   5   2.0000     -10.230195      -278.3778
   6   2.0000     -10.213209      -277.9155
   7   2.0000     -10.213112      -277.9129
   8   2.0000     -10.194162      -277.3973
   9   2.0000     -10.184664      -277.1388
  10   2.0000     -10.184619      -277.1376
  11   2.0000     -10.170443      -276.7518
  12   2.0000     -10.167288      -276.6660
  13   2.0000      -1.238675       -33.7060
  14   2.0000      -1.065287       -28.9879
  15   2.0000      -0.984194       -26.7813
  16   2.0000      -0.955518       -26.0010
  17   2.0000      -0.841681       -22.9033
  18   2.0000      -0.810727       -22.0610
  19   2.0000      -0.770052       -20.9542
  20   2.0000      -0.702233       -19.1087
  21   2.0000      -0.697938       -18.9919
  22   2.0000      -0.638306       -17.3692
  23   2.0000      -0.633832       -17.2474
  24   2.0000      -0.588927       -16.0255
  25   2.0000      -0.545544       -14.8450
  26   2.0000      -0.538553       -14.6548
  27   2.0000      -0.535535       -14.5726
  28   2.0000      -0.521962       -14.2033
  29   2.0000      -0.504397       -13.7253
  30   2.0000      -0.490213       -13.3394
  31   2.0000      -0.471694       -12.8354
  32   2.0000      -0.463515       -12.6129
  33   2.0000      -0.435118       -11.8402
  34   2.0000      -0.416472       -11.3328
  35   2.0000      -0.412354       -11.2207
  36   2.0000      -0.410988       -11.1836
  37   2.0000      -0.409487       -11.1427
  38   2.0000      -0.394774       -10.7423
  39   2.0000      -0.375126       -10.2077
  40   2.0000      -0.369877       -10.0649
  41   2.0000      -0.364068        -9.9068
  42   2.0000      -0.360128        -9.7996
  43   2.0000      -0.329074        -8.9546
  44   2.0000      -0.314157        -8.5487
  45   2.0000      -0.307906        -8.3786
  46   2.0000      -0.300819        -8.1857
  47   2.0000      -0.297261        -8.0889
  48   2.0000      -0.278501        -7.5784
  49   2.0000      -0.273318        -7.4374
  50   0.0000      -0.077991        -2.1222
  51   0.0000      -0.042156        -1.1471
  52   0.0000      -0.025495        -0.6937
  53   0.0000       0.029274         0.7966
  54   0.0000       0.060178         1.6375

MULLIKEN ATOMIC CHARGES
-----------------------
   0 C :   -0.380171
   1 H :    0.146353
   2 N :    0.438270
   3 O :   -0.355860
   4 O :   -0.353196
   5 H :    0.127838
   6 C :    0.054152
   7 H :    0.113770
   8 H :    0.140332
   9 C :   -0.363309
  10 H :    0.132340
  11 C :    0.001031
  12 C :   -0.132276
  13 C :   -0.106561
  14 C :   -0.130778
  15 C :   -0.007488
  16 N :   -0.335791
  17 H :    0.154184
  18 H :    0.161654
  19 H :    0.154270
  20 H :    0.136371
  21 H :    0.140102
  22 H :    0.152384
  23 H :    0.154394
  24 H :    0.343461
  25 H :    0.339770
  26 O :   -0.725245
Sum of atomic charges:   -0.0000000

LOEWDIN ATOMIC CHARGES
----------------------
   0 C :   -0.266007
   1 H :    0.129949
   2 N :   -0.032750
   3 O :   -0.055761
   4 O :   -0.049522
   5 H :    0.134048
   6 C :   -0.278534
   7 H :    0.155635
   8 H :    0.129601
   9 C :   -0.273645
  10 H :    0.127814
  11 C :   -0.195737
  12 C :   -0.136468
  13 C :   -0.104497
  14 C :   -0.137642
  15 C :   -0.200682
  16 N :    0.107169
  17 H :    0.155305
  18 H :    0.156235
  19 H :    0.155220
  20 H :    0.138183
  21 H :    0.130302
  22 H :    0.144790
  23 H :    0.145230
  24 H :    0.157851
  25 H :    0.134550
  26 O :   -0.370637

  Mayer bond orders larger than 0.100000
B(  0-C ,  1-H ) :   0.9705 B(  0-C ,  6-C ) :   0.9458 B(  0-C ,  8-H ) :   0.9566
B(  0-C , 20-H ) :   0.9626 B(  2-N ,  3-O ) :   1.6054 B(  2-N ,  4-O ) :   1.6055
B(  2-N ,  6-C ) :   0.8338 B(  3-O ,  4-O ) :   0.2096 B(  5-H ,  9-C ) :   0.9613
B(  6-C ,  7-H ) :   0.9437 B(  6-C ,  9-C ) :   0.9510 B(  9-C , 10-H ) :   0.9616
B(  9-C , 21-H ) :   0.9703 B( 11-C , 12-C ) :   1.4246 B( 11-C , 16-N ) :   1.3761
B( 11-C , 23-H ) :   0.9556 B( 12-C , 13-C ) :   1.4103 B( 12-C , 17-H ) :   0.9613
B( 13-C , 14-C ) :   1.4084 B( 13-C , 18-H ) :   0.9540 B( 14-C , 15-C ) :   1.4248
B( 14-C , 19-H ) :   0.9615 B( 15-C , 16-N ) :   1.3815 B( 15-C , 22-H ) :   0.9571
B( 16-N , 25-H ) :   0.1553 B( 24-H , 26-O ) :   0.8927 B( 25-H , 26-O ) :   0.8093

Dispersion correction           -0.043799272
FINAL SINGLE POINT ENERGY      -648.335375147093

DIPOLE MOMENT
-------------
                                X             Y             Z
Electronic contribution:      1.43270      -7.18061      -5.28058
Nuclear contribution   :     -0.58794       7.37891       4.30674
                        -----------------------------------------
Total Dipole Moment    :      0.84476       0.19830      -0.97383
                        -----------------------------------------
Magnitude (a.u.)       :      1.30434
Magnitude (Debye)      :      3.31536

Rotational constants in cm-1:     0.029896     0.016068     0.012871
Rotational constants in MHz :   896.259485   481.697744   385.860756

                             ****ORCA TERMINATED NORMALLY****
TOTAL RUN TIME: 0 days 1 hours 6 minutes 15 seconds 41 msec
