                         Program Version 5.0.4 -  RELEASE  -
|  1> !  NUMFREQ B3LYP def2-TZVP CPCM D3
|  2> %pal nprocs 102 end
|  3> %cpcm epsilon 78.4 end
|  4> *xyz 0 2
|  5> C   -0.80964770706359 0.54247280019439 0.86507697686808
|  6> C   0.45240604522728 0.88234729797537 1.34255991163073
|  7> C   1.55617065502628 0.07318068469352 1.07395139383753
|  8> C   1.39382626093555 -1.07691417182265 0.30970995218422
|  9> C   0.12899376918857 -1.39041974285126 -0.16410431720046
| 10> C   -0.98393743735359 -0.60254750104181 0.10313885782892
| 11> H   -1.65924843667344 1.17468705487395 1.08485453681655
| 12> H   0.58980874304343 1.78072022801115 1.93069450352152
| 13> H   2.22764790544236 -1.72196446005153 0.07761379989804
| 14> H   -1.95362417192967 -0.88158309103552 -0.27955689530787
| 15> N   -0.03602421108992 -2.60073378888749 -0.97790207095785
| 16> O   -1.16119622902068 -2.88720503308164 -1.36552363861398
| 17> O   0.9578058037732 -3.26897043219216 -1.23218632874871
| 18> C   2.91189500868049 0.45237451023558 1.62488630049071
| 19> C   3.5946316564845 -0.63239149448858 2.43162257668665
| 20> H   4.56838028586139 -0.29389788369555 2.7839196164227
| 21> H   3.72193211030634 -1.54970461381742 1.86024272400379
| 22> H   2.96733325170434 -0.84538058038653 3.29804468943435
| 23> N   3.77873310160417 0.88444973889506 0.43455939413224
| 24> O   3.54139960999298 1.98199394748111 -0.04363056138516
| 25> O   4.63284385957967 0.12364011999619 0.01596098125862
| 26> H   2.81130311868858 1.37045765227886 2.20221379082832 M = 2
| 27> C   6.68360672407149 3.49814706632981 5.26902218305535
| 28> N   7.50171675671424 3.03330353616702 4.24693068448434
| 29> C   7.1329147645429 3.39415352789182 2.87868758985609
| 30> C   5.64189766953409 3.16185178480313 2.6675420497826
| 31> N   4.81592081426386 3.83914675474531 3.67805355631953
| 32> C   5.21115867699826 3.40620180517325 5.03364575687377
| 33> H   7.07029651867437 3.37584092821926 6.27342494617531
| 34> H   8.49145497911468 3.1119127995191 4.43287043552417
| 35> H   7.71130604217841 2.78395758805911 2.18332178305248
| 36> H   7.36294560277131 4.45033362950797 2.6772590344181
| 37> H   5.34867778028929 3.50575929805496 1.67566449554966
| 38> H   5.42785816743892 2.09205678471477 2.73162848017809
| 39> H   4.9679190105692 4.84220779373307 3.60201191379011
| 40> H   4.66762553526015 4.00058170376884 5.76887593222174
| 41> H   4.85693229352207 2.36691230906867 5.13840241888428
| 42> H   1.91948398649741 2.70426981359704 4.15527847514571
| 43> H   3.1017600961775 3.45882753425359 3.47192835869056
| 44> O   2.14251159897304 3.19774408110998 3.35712570236867
| 45> *
| 46>
| 47>                          ****END OF INPUT****

CARTESIAN COORDINATES (ANGSTROEM)
---------------------------------
  C     -0.809648    0.542473    0.865077
  C      0.452406    0.882347    1.342560
  C      1.556171    0.073181    1.073951
  C      1.393826   -1.076914    0.309710
  C      0.128994   -1.390420   -0.164104
  C     -0.983937   -0.602548    0.103139
  H     -1.659248    1.174687    1.084855
  H      0.589809    1.780720    1.930695
  H      2.227648   -1.721964    0.077614
  H     -1.953624   -0.881583   -0.279557
  N     -0.036024   -2.600734   -0.977902
  O     -1.161196   -2.887205   -1.365524
  O      0.957806   -3.268970   -1.232186
  C      2.911895    0.452375    1.624886
  C      3.594632   -0.632391    2.431623
  H      4.568380   -0.293898    2.783920
  H      3.721932   -1.549705    1.860243
  H      2.967333   -0.845381    3.298045
  N      3.778733    0.884450    0.434559
  O      3.541400    1.981994   -0.043631
  O      4.632844    0.123640    0.015961
  H      2.811303    1.370458    2.202214
  C      6.683607    3.498147    5.269022
  N      7.501717    3.033304    4.246931
  C      7.132915    3.394154    2.878688
  C      5.641898    3.161852    2.667542
  N      4.815921    3.839147    3.678054
  C      5.211159    3.406202    5.033646
  H      7.070297    3.375841    6.273425
  H      8.491455    3.111913    4.432870
  H      7.711306    2.783958    2.183322
  H      7.362946    4.450334    2.677259
  H      5.348678    3.505759    1.675664
  H      5.427858    2.092057    2.731628
  H      4.967919    4.842208    3.602012
  H      4.667626    4.000582    5.768876
  H      4.856932    2.366912    5.138402
  H      1.919484    2.704270    4.155278
  H      3.101760    3.458828    3.471928
  O      2.142512    3.197744    3.357126

 Total Charge           Charge          ....    0
 Multiplicity           Mult            ....    2
 Number of Electrons    NEL             ....  159
 Basis Dimension        Dim             ....  765

ORBITAL ENERGIES
----------------
                 SPIN UP ORBITALS
  NO   OCC          E(Eh)            E(eV)
   0   1.0000     -19.174653      -521.7688
   1   1.0000     -19.171450      -521.6817
   2   1.0000     -19.171009      -521.6697
   3   1.0000     -19.170988      -521.6691
   4   1.0000     -19.099940      -519.7358
   5   1.0000     -14.564343      -396.3159
   6   1.0000     -14.554714      -396.0539
   7   1.0000     -14.323228      -389.7549
   8   1.0000     -14.311471      -389.4349
   9   1.0000     -10.242664      -278.7171
  10   1.0000     -10.237450      -278.5752
  11   1.0000     -10.210285      -277.8360
  12   1.0000     -10.204513      -277.6789
  13   1.0000     -10.202336      -277.6197
  14   1.0000     -10.196936      -277.4727
  15   1.0000     -10.193798      -277.3873
  16   1.0000     -10.192179      -277.3433
  17   1.0000     -10.190781      -277.3052
  18   1.0000     -10.190414      -277.2953
  19   1.0000     -10.178999      -276.9846
  20   1.0000     -10.170940      -276.7653
  21   1.0000      -1.244758       -33.8716
  22   1.0000      -1.243673       -33.8421
  23   1.0000      -1.070830       -29.1388
  24   1.0000      -1.069361       -29.0988
  25   1.0000      -0.981549       -26.7093
  26   1.0000      -0.943303       -25.6686
  27   1.0000      -0.902373       -24.5548
  28   1.0000      -0.890176       -24.2229
  29   1.0000      -0.850145       -23.1336
  30   1.0000      -0.807038       -21.9606
  31   1.0000      -0.765254       -20.8236
  32   1.0000      -0.760164       -20.6851
  33   1.0000      -0.711436       -19.3592
  34   1.0000      -0.703271       -19.1370
  35   1.0000      -0.674278       -18.3480
  36   1.0000      -0.645202       -17.5568
  37   1.0000      -0.638304       -17.3691
  38   1.0000      -0.610382       -16.6093
  39   1.0000      -0.593063       -16.1381
  40   1.0000      -0.575742       -15.6667
  41   1.0000      -0.567706       -15.4481
  42   1.0000      -0.552268       -15.0280
  43   1.0000      -0.550341       -14.9755
  44   1.0000      -0.538213       -14.6455
  45   1.0000      -0.531492       -14.4626
  46   1.0000      -0.530124       -14.4254
  47   1.0000      -0.525520       -14.3001
  48   1.0000      -0.512161       -13.9366
  49   1.0000      -0.504796       -13.7362
  50   1.0000      -0.485330       -13.2065
  51   1.0000      -0.463401       -12.6098
  52   1.0000      -0.455468       -12.3939
  53   1.0000      -0.455077       -12.3833
  54   1.0000      -0.450238       -12.2516
  55   1.0000      -0.447472       -12.1763
  56   1.0000      -0.422037       -11.4842
  57   1.0000      -0.420736       -11.4488
  58   1.0000      -0.409316       -11.1381
  59   1.0000      -0.405231       -11.0269
  60   1.0000      -0.395019       -10.7490
  61   1.0000      -0.393511       -10.7080
  62   1.0000      -0.391221       -10.6457
  63   1.0000      -0.378069       -10.2878
  64   1.0000      -0.367788       -10.0080
  65   1.0000      -0.366286        -9.9671
  66   1.0000      -0.355542        -9.6748
  67   1.0000      -0.349345        -9.5062
  68   1.0000      -0.333111        -9.0644
  69   1.0000      -0.332806        -9.0561
  70   1.0000      -0.330669        -8.9980
  71   1.0000      -0.323487        -8.8025
  72   1.0000      -0.312143        -8.4938
  73   1.0000      -0.311244        -8.4694
  74   1.0000      -0.302660        -8.2358
  75   1.0000      -0.295045        -8.0286
  76   1.0000      -0.286416        -7.7938
  77   1.0000      -0.278283        -7.5725
  78   1.0000      -0.245115        -6.6699
  79   1.0000      -0.145240        -3.9522
  80   0.0000      -0.105424        -2.8687
  81   0.0000      -0.082874        -2.2551
  82   0.0000      -0.038351        -1.0436
  83   0.0000      -0.008824        -0.2401
  84   0.0000       0.028532         0.7764

                 SPIN DOWN ORBITALS
  NO   OCC          E(Eh)            E(eV)
   0   1.0000     -19.174652      -521.7688
   1   1.0000     -19.171450      -521.6817
   2   1.0000     -19.171009      -521.6697
   3   1.0000     -19.170988      -521.6691
   4   1.0000     -19.099913      -519.7351
   5   1.0000     -14.564343      -396.3159
   6   1.0000     -14.554714      -396.0539
   7   1.0000     -14.318409      -389.6237
   8   1.0000     -14.311142      -389.4260
   9   1.0000     -10.242664      -278.7171
  10   1.0000     -10.237449      -278.5751
  11   1.0000     -10.210285      -277.8360
  12   1.0000     -10.204513      -277.6789
  13   1.0000     -10.202336      -277.6197
  14   1.0000     -10.196936      -277.4727
  15   1.0000     -10.193798      -277.3873
  16   1.0000     -10.192094      -277.3410
  17   1.0000     -10.191230      -277.3175
  18   1.0000     -10.190330      -277.2930
  19   1.0000     -10.170934      -276.7652
  20   1.0000     -10.167941      -276.6837
  21   1.0000      -1.244758       -33.8716
  22   1.0000      -1.243673       -33.8421
  23   1.0000      -1.070829       -29.1387
  24   1.0000      -1.069361       -29.0988
  25   1.0000      -0.981467       -26.7071
  26   1.0000      -0.936779       -25.4910
  27   1.0000      -0.902373       -24.5548
  28   1.0000      -0.884959       -24.0810
  29   1.0000      -0.850143       -23.1336
  30   1.0000      -0.807037       -21.9606
  31   1.0000      -0.765247       -20.8234
  32   1.0000      -0.753959       -20.5163
  33   1.0000      -0.711435       -19.3591
  34   1.0000      -0.703262       -19.1367
  35   1.0000      -0.669043       -18.2056
  36   1.0000      -0.645199       -17.5568
  37   1.0000      -0.632300       -17.2058
  38   1.0000      -0.610373       -16.6091
  39   1.0000      -0.593049       -16.1377
  40   1.0000      -0.575580       -15.6623
  41   1.0000      -0.560005       -15.2385
  42   1.0000      -0.552143       -15.0246
  43   1.0000      -0.550311       -14.9747
  44   1.0000      -0.538140       -14.6435
  45   1.0000      -0.531376       -14.4595
  46   1.0000      -0.526978       -14.3398
  47   1.0000      -0.525475       -14.2989
  48   1.0000      -0.512132       -13.9358
  49   1.0000      -0.504567       -13.7300
  50   1.0000      -0.485327       -13.2064
  51   1.0000      -0.460512       -12.5312
  52   1.0000      -0.455111       -12.3842
  53   1.0000      -0.451906       -12.2970
  54   1.0000      -0.449688       -12.2366
  55   1.0000      -0.443022       -12.0552
  56   1.0000      -0.420775       -11.4499
  57   1.0000      -0.412879       -11.2350
  58   1.0000      -0.409246       -11.1362
  59   1.0000      -0.399141       -10.8612
  60   1.0000      -0.394956       -10.7473
  61   1.0000      -0.391117       -10.6428
  62   1.0000      -0.389688       -10.6039
  63   1.0000      -0.377801       -10.2805
  64   1.0000      -0.367711       -10.0059
  65   1.0000      -0.365685        -9.9508
  66   1.0000      -0.353434        -9.6174
  67   1.0000      -0.347252        -9.4492
  68   1.0000      -0.333106        -9.0643
  69   1.0000      -0.332764        -9.0550
  70   1.0000      -0.330660        -8.9977
  71   1.0000      -0.323484        -8.8024
  72   1.0000      -0.312142        -8.4938
  73   1.0000      -0.311241        -8.4693
  74   1.0000      -0.295003        -8.0274
  75   1.0000      -0.286416        -7.7938
  76   1.0000      -0.278282        -7.5724
  77   1.0000      -0.271965        -7.4005
  78   1.0000      -0.242322        -6.5939
  79   0.0000      -0.105424        -2.8687
  80   0.0000      -0.082877        -2.2552
  81   0.0000      -0.038364        -1.0439
  82   0.0000      -0.028883        -0.7860
  83   0.0000      -0.008822        -0.2401

MULLIKEN ATOMIC CHARGES AND SPIN POPULATIONS
--------------------------------------------
   0 C :   -0.098590   -0.000010
   1 C :   -0.191191    0.000096
   2 C :    0.131363   -0.000646
   3 C :   -0.220465    0.000043
   4 C :    0.121390   -0.000019
   5 C :   -0.180370    0.000010
   6 H :    0.158279   -0.000004
   7 H :    0.171985    0.000014
   8 H :    0.173608   -0.000022
   9 H :    0.170987    0.000002
  10 N :    0.457050   -0.000001
  11 O :   -0.352926    0.000000
  12 O :   -0.352381    0.000000
  13 C :    0.038931    0.001107
  14 C :   -0.359241   -0.001158
  15 H :    0.146148    0.000903
  16 H :    0.141736    0.000172
  17 H :    0.140909    0.000266
  18 N :    0.430924   -0.000000
  19 O :   -0.355138   -0.000001
  20 O :   -0.342089    0.000017
  21 H :    0.116324   -0.000258
  22 C :   -0.236848    0.811457
  23 N :   -0.292522    0.170325
  24 C :   -0.088291    0.006586
  25 C :   -0.087377   -0.021443
  26 N :   -0.383571    0.001016
  27 C :   -0.070485   -0.054448
  28 H :    0.129486   -0.027751
  29 H :    0.240204   -0.004232
  30 H :    0.118029   -0.000342
  31 H :    0.090742    0.030174
  32 H :    0.124142    0.000497
  33 H :    0.097491    0.010516
  34 H :    0.212980    0.010677
  35 H :    0.125242    0.007041
  36 H :    0.093920    0.059312
  37 H :    0.341573    0.000671
  38 H :    0.346635   -0.001246
  39 O :   -0.708592    0.000679
Sum of atomic charges         :    0.0000000

LOEWDIN ATOMIC CHARGES AND SPIN POPULATIONS
-------------------------------------------
   0 C :   -0.108840    0.000000
   1 C :   -0.065232    0.000006
   2 C :   -0.120177    0.000015
   3 C :   -0.045664    0.000011
   4 C :   -0.151399    0.000000
   5 C :   -0.078245    0.000002
   6 H :    0.159096    0.000000
   7 H :    0.159273    0.000000
   8 H :    0.166269    0.000003
   9 H :    0.162477    0.000000
  10 N :   -0.012957    0.000000
  11 O :   -0.047984   -0.000000
  12 O :   -0.048613    0.000000
  13 C :   -0.209319    0.000112
  14 C :   -0.262076    0.000493
  15 H :    0.128918    0.000591
  16 H :    0.129889    0.000043
  17 H :    0.140804    0.000063
  18 N :   -0.031158    0.000016
  19 O :   -0.047045    0.000001
  20 O :   -0.034979    0.000005
  21 H :    0.166642    0.000071
  22 C :   -0.305484    0.624852
  23 N :    0.053864    0.201548
  24 C :   -0.286661    0.025261
  25 C :   -0.300429    0.004884
  26 N :    0.002238    0.007854
  27 C :   -0.323832    0.063163
  28 H :    0.120995    0.005470
  29 H :    0.186415    0.004877
  30 H :    0.134661    0.000085
  31 H :    0.122330    0.012531
  32 H :    0.134425    0.000180
  33 H :    0.134757    0.002380
  34 H :    0.174742    0.005599
  35 H :    0.137373    0.004171
  36 H :    0.130119    0.034093
  37 H :    0.157431    0.000629
  38 H :    0.131627    0.000306
  39 O :   -0.354253    0.000685

  Mayer bond orders larger than 0.100000
B(  0-C ,  1-C ) :   1.3993 B(  0-C ,  5-C ) :   1.4114 B(  0-C ,  6-H ) :   0.9728
B(  1-C ,  2-C ) :   1.3522 B(  1-C ,  7-H ) :   0.9402 B(  2-C ,  3-C ) :   1.3721
B(  2-C , 13-C ) :   0.8948 B(  3-C ,  4-C ) :   1.4139 B(  3-C ,  8-H ) :   0.9185
B(  4-C ,  5-C ) :   1.3439 B(  4-C , 10-N ) :   0.9979 B(  5-C ,  9-H ) :   0.9434
B( 10-N , 11-O ) :   1.5888 B( 10-N , 12-O ) :   1.5913 B( 11-O , 12-O ) :   0.1933
B( 13-C , 14-C ) :   0.9661 B( 13-C , 18-N ) :   0.8177 B( 13-C , 21-H ) :   0.9300
B( 14-C , 15-H ) :   0.9718 B( 14-C , 16-H ) :   0.9487 B( 14-C , 17-H ) :   0.9632
B( 18-N , 19-O ) :   1.5959 B( 18-N , 20-O ) :   1.6146 B( 19-O , 20-O ) :   0.2116
B( 21-H , 39-O ) :   0.1634 B( 22-C , 23-N ) :   1.2064 B( 22-C , 27-C ) :   1.0052
B( 22-C , 28-H ) :   0.9635 B( 23-N , 24-C ) :   0.9626 B( 23-N , 29-H ) :   0.9153
B( 24-C , 25-C ) :   0.9908 B( 24-C , 30-H ) :   0.9607 B( 24-C , 31-H ) :   0.9628
B( 25-C , 26-N ) :   0.9492 B( 25-C , 32-H ) :   0.9588 B( 25-C , 33-H ) :   0.9627
B( 26-N , 27-C ) :   0.9478 B( 26-N , 34-H ) :   0.9088 B( 26-N , 38-H ) :   0.1829
B( 27-C , 35-H ) :   0.9658 B( 27-C , 36-H ) :   0.9404 B( 37-H , 39-O ) :   0.8892
B( 38-H , 39-O ) :   0.7712

Dispersion correction           -0.074786088
FINAL SINGLE POINT ENERGY     -1063.550555332495
Dispersion correction            ... done

DIPOLE MOMENT
-------------
                                X             Y             Z
Electronic contribution:    -17.32389     -17.28348     -20.57867
Nuclear contribution   :     18.59490      18.86876      23.95920
                        -----------------------------------------
Total Dipole Moment    :      1.27102       1.58529       3.38053
                        -----------------------------------------
Magnitude (a.u.)       :      3.94418
Magnitude (Debye)      :     10.02532

VIBRATIONAL FREQUENCIES
-----------------------

Scaling factor for frequencies =  1.000000000 (already applied!)

   0:         0.00 cm**-1
   1:         0.00 cm**-1
   2:         0.00 cm**-1
   3:         0.00 cm**-1
   4:         0.00 cm**-1
   5:         0.00 cm**-1
   6:        -6.56 cm**-1 ***imaginary mode***
   7:        13.65 cm**-1
   8:        22.03 cm**-1
   9:        26.61 cm**-1
  10:        33.43 cm**-1
  11:        38.02 cm**-1
  12:        47.21 cm**-1
  13:        49.30 cm**-1
  14:        52.76 cm**-1
  15:        62.95 cm**-1
  16:        89.18 cm**-1
  17:        93.22 cm**-1
  18:       143.38 cm**-1
  19:       163.43 cm**-1
  20:       180.49 cm**-1
  21:       187.88 cm**-1
  22:       229.68 cm**-1
  23:       235.89 cm**-1
  24:       249.56 cm**-1
  25:       279.82 cm**-1
  26:       286.08 cm**-1
  27:       301.91 cm**-1
  28:       369.95 cm**-1
  29:       391.65 cm**-1
  30:       397.99 cm**-1
  31:       438.15 cm**-1
  32:       450.95 cm**-1
  33:       470.97 cm**-1
  34:       494.07 cm**-1
  35:       511.19 cm**-1
  36:       514.05 cm**-1
  37:       526.95 cm**-1
  38:       549.69 cm**-1
  39:       586.51 cm**-1
  40:       634.49 cm**-1
  41:       670.96 cm**-1
  42:       689.36 cm**-1
  43:       697.45 cm**-1
  44:       739.78 cm**-1
  45:       752.12 cm**-1
  46:       787.28 cm**-1
  47:       811.53 cm**-1
  48:       825.22 cm**-1
  49:       835.75 cm**-1
  50:       862.67 cm**-1
  51:       866.44 cm**-1
  52:       884.89 cm**-1
  53:       888.38 cm**-1
  54:       903.36 cm**-1
  55:       922.07 cm**-1
  56:       926.08 cm**-1
  57:       941.89 cm**-1
  58:       973.58 cm**-1
  59:       983.59 cm**-1
  60:       986.05 cm**-1
  61:      1019.08 cm**-1
  62:      1024.95 cm**-1
  63:      1055.86 cm**-1
  64:      1058.40 cm**-1
  65:      1091.03 cm**-1
  66:      1107.50 cm**-1
  67:      1120.12 cm**-1
  68:      1127.86 cm**-1
  69:      1133.01 cm**-1
  70:      1134.72 cm**-1
  71:      1154.04 cm**-1
  72:      1194.06 cm**-1
  73:      1202.49 cm**-1
  74:      1220.58 cm**-1
  75:      1261.40 cm**-1
  76:      1267.55 cm**-1
  77:      1328.47 cm**-1
  78:      1333.10 cm**-1
  79:      1352.97 cm**-1
  80:      1355.61 cm**-1
  81:      1360.04 cm**-1
  82:      1361.80 cm**-1
  83:      1391.69 cm**-1
  84:      1399.85 cm**-1
  85:      1420.41 cm**-1
  86:      1440.59 cm**-1
  87:      1461.44 cm**-1
  88:      1465.30 cm**-1
  89:      1469.32 cm**-1
  90:      1473.40 cm**-1
  91:      1482.51 cm**-1
  92:      1484.94 cm**-1
  93:      1489.14 cm**-1
  94:      1505.66 cm**-1
  95:      1510.78 cm**-1
  96:      1548.27 cm**-1
  97:      1560.29 cm**-1
  98:      1618.98 cm**-1
  99:      1646.94 cm**-1
 100:      1652.65 cm**-1
 101:      2288.98 cm**-1
 102:      2912.50 cm**-1
 103:      2955.95 cm**-1
 104:      3041.57 cm**-1
 105:      3054.33 cm**-1
 106:      3055.94 cm**-1
 107:      3076.53 cm**-1
 108:      3079.49 cm**-1
 109:      3099.79 cm**-1
 110:      3121.51 cm**-1
 111:      3136.56 cm**-1
 112:      3167.30 cm**-1
 113:      3188.83 cm**-1
 114:      3201.77 cm**-1
 115:      3228.40 cm**-1
 116:      3232.41 cm**-1
 117:      3459.64 cm**-1
 118:      3561.90 cm**-1
 119:      3810.86 cm**-1

IR SPECTRUM
-----------

 Mode   freq       eps      Int      T**2         TX        TY        TZ
       cm**-1   L/(mol*cm) km/mol    a.u.
----------------------------------------------------------------------------
  7:     13.65   0.000201    1.02  0.004604  ( 0.018092 -0.064199 -0.012454)
  8:     22.03   0.000472    2.38  0.006683  (-0.073937 -0.006468 -0.034266)
  9:     26.61   0.000275    1.39  0.003220  (-0.015992 -0.017804 -0.051456)
 10:     33.43   0.001178    5.95  0.010994  (-0.036600  0.027389  0.094363)
 11:     38.02   0.000818    4.14  0.006718  (-0.017214  0.065086  0.046748)
 12:     47.21   0.000846    4.27  0.005590  (-0.047325  0.036578  0.044858)
 13:     49.30   0.000261    1.32  0.001651  (-0.003521  0.022294  0.033793)
 14:     52.76   0.000322    1.63  0.001902  (-0.028120  0.031394  0.011228)
 15:     62.95   0.000717    3.62  0.003553  (-0.046911  0.003169  0.036632)
 16:     89.18   0.003774   19.07  0.013208  ( 0.061811 -0.089031 -0.038216)
 17:     93.22   0.011467   57.95  0.038387  ( 0.025237 -0.167405 -0.098617)
 18:    143.38   0.000352    1.78  0.000767  ( 0.011171  0.015693  0.019898)
 19:    163.43   0.027261  137.76  0.052053  ( 0.069038 -0.194299 -0.097644)
 20:    180.49   0.001592    8.05  0.002753  ( 0.042308 -0.011011 -0.029012)
 21:    187.88   0.001836    9.28  0.003050  ( 0.040489  0.033459  0.017049)
 22:    229.68   0.000044    0.22  0.000059  (-0.003202  0.006792 -0.001744)
 23:    235.89   0.001017    5.14  0.001346  ( 0.029506 -0.005035  0.021206)
 24:    249.56   0.000068    0.34  0.000085  ( 0.006915 -0.001036  0.005980)
 25:    279.82   0.001109    5.60  0.001236  (-0.014274 -0.020616 -0.024648)
 26:    286.08   0.000155    0.79  0.000170  ( 0.009796  0.001241 -0.008488)
 27:    301.91   0.000350    1.77  0.000362  (-0.008181 -0.010859  0.013296)
 28:    369.95   0.000120    0.60  0.000101  ( 0.004572  0.008913 -0.000788)
 29:    391.65   0.005194   26.25  0.004139  (-0.027257 -0.047255 -0.034098)
 30:    397.99   0.000753    3.81  0.000591  (-0.006934 -0.013688 -0.018848)
 31:    438.15   0.000081    0.41  0.000058  (-0.002479 -0.003114  0.006467)
 32:    450.95   0.022914  115.80  0.015856  (-0.011880  0.122301  0.027528)
 33:    470.97   0.001981   10.01  0.001313  ( 0.008703 -0.009167  0.033958)
 34:    494.07   0.006329   31.98  0.003997  (-0.046333 -0.037474 -0.021126)
 35:    511.19   0.012023   60.76  0.007339  ( 0.057690  0.055285 -0.030903)
 36:    514.05   0.006974   35.24  0.004234  ( 0.055387  0.033862 -0.004406)
 37:    526.95   0.010314   52.12  0.006108  ( 0.056840 -0.052579 -0.010617)
 38:    549.69   0.000898    4.54  0.000510  ( 0.001519 -0.000482 -0.022517)
 39:    586.51   0.002890   14.60  0.001537  ( 0.011733  0.033666 -0.016321)
 40:    634.49   0.003598   18.19  0.001770  ( 0.028381 -0.003149 -0.030894)
 41:    670.96   0.018913   95.58  0.008796  (-0.076632  0.052369 -0.013463)
 42:    689.36   0.001755    8.87  0.000795  ( 0.014396  0.019043  0.014989)
 43:    697.45   0.007452   37.66  0.003334  ( 0.012111  0.035952 -0.043532)
 44:    739.78   0.013247   66.95  0.005588  ( 0.025674 -0.067280  0.020059)
 45:    752.12   0.013080   66.10  0.005427  (-0.013599 -0.029862  0.065957)
 46:    787.28   0.001281    6.47  0.000508  (-0.004334 -0.021724 -0.004133)
 47:    811.53   0.004976   25.15  0.001914  ( 0.006029  0.037331  0.021992)
 48:    825.22   0.007131   36.04  0.002697  (-0.033202 -0.031237 -0.024873)
 49:    835.75   0.002374   11.99  0.000886  (-0.004845 -0.013681  0.025993)
 50:    862.67   0.003739   18.89  0.001353  (-0.021771 -0.001850  0.029582)
 51:    866.44   0.006154   31.10  0.002216  ( 0.010500  0.044185  0.012401)
 52:    884.89   0.004543   22.96  0.001602  (-0.030394 -0.000304  0.026041)
 53:    888.38   0.009524   48.13  0.003346  ( 0.050408  0.008834  0.026957)
 54:    903.36   0.019106   96.56  0.006600  (-0.039588  0.070724  0.005579)
 55:    922.07   0.020545  103.82  0.006953  ( 0.064660 -0.052037 -0.008023)
 56:    926.08   0.004110   20.77  0.001385  (-0.018979 -0.014401 -0.028587)
 57:    941.89   0.003251   16.43  0.001077  (-0.014930 -0.017759  0.023211)
 58:    973.58   0.000312    1.58  0.000100  ( 0.004664 -0.005172  0.007174)
 59:    983.59   0.001084    5.48  0.000344  ( 0.018277  0.002229 -0.002224)
 60:    986.05   0.013705   69.26  0.004337  (-0.058840  0.028014  0.009504)
 61:   1019.08   0.000140    0.71  0.000043  (-0.002677 -0.004674  0.003733)
 62:   1024.95   0.000438    2.22  0.000133  ( 0.006429 -0.007967 -0.005354)
 63:   1055.86   0.001423    7.19  0.000421  (-0.017767 -0.008094  0.006275)
 64:   1058.40   0.002060   10.41  0.000608  ( 0.021437  0.012143  0.000728)
 65:   1091.03   0.010383   52.47  0.002970  (-0.014972  0.045745  0.025556)
 66:   1107.50   0.007076   35.76  0.001994  (-0.016609  0.011103  0.039933)
 67:   1120.12   0.008522   43.07  0.002374  ( 0.027160  0.029393  0.027796)
 68:   1127.86   0.010174   51.41  0.002815  ( 0.026573  0.044850  0.009863)
 69:   1133.01   0.000714    3.61  0.000197  (-0.006152  0.012468  0.001841)
 70:   1134.72   0.004800   24.26  0.001320  (-0.016941  0.017402 -0.027022)
 71:   1154.04   0.004672   23.61  0.001263  (-0.006269 -0.014773 -0.031713)
 72:   1194.06   0.000930    4.70  0.000243  ( 0.007875  0.012614  0.004674)
 73:   1202.49   0.010396   52.53  0.002698  ( 0.026733 -0.017592 -0.040911)
 74:   1220.58   0.002931   14.81  0.000749  (-0.008427  0.006253  0.025281)
 75:   1261.40   0.000607    3.07  0.000150  ( 0.012070  0.001871 -0.000945)
 76:   1267.55   0.002868   14.49  0.000706  ( 0.009286 -0.008702  0.023326)
 77:   1328.47   0.004321   21.84  0.001015  ( 0.012101 -0.029435 -0.001478)
 78:   1333.10   0.002773   14.01  0.000649  (-0.015143 -0.010858 -0.017377)
 79:   1352.97   0.005232   26.44  0.001207  (-0.027855  0.018504  0.009408)
 80:   1355.61   0.002177   11.00  0.000501  (-0.017431  0.000329  0.014044)
 81:   1360.04   0.011297   57.09  0.002592  (-0.012523  0.010305  0.048261)
 82:   1361.80   0.128740  650.60  0.029501  ( 0.033262  0.141060  0.092179)
 83:   1391.69   0.003967   20.05  0.000890  (-0.028906 -0.001101  0.007265)
 84:   1399.85   0.016228   82.01  0.003618  ( 0.049370  0.007038 -0.033625)
 85:   1420.41   0.022623  114.33  0.004970  (-0.035125 -0.040249  0.046005)
 86:   1440.59   0.001060    5.35  0.000230  ( 0.010235 -0.011130  0.000946)
 87:   1461.44   0.000500    2.53  0.000107  ( 0.003095  0.007176  0.006766)
 88:   1465.30   0.006314   31.91  0.001345  (-0.031463 -0.015520 -0.010675)
 89:   1469.32   0.005018   25.36  0.001066  (-0.019692 -0.001312  0.026004)
 90:   1473.40   0.001070    5.41  0.000227  ( 0.006942 -0.011489 -0.006814)
 91:   1482.51   0.004520   22.84  0.000951  ( 0.009528  0.019856  0.021597)
 92:   1484.94   0.001537    7.77  0.000323  ( 0.008041  0.000636 -0.016062)
 93:   1489.14   0.001319    6.66  0.000276  (-0.000008 -0.000652 -0.016611)
 94:   1505.66   0.004353   22.00  0.000902  ( 0.019250  0.000450 -0.023054)
 95:   1510.78   0.019504   98.56  0.004029  (-0.055109  0.029731  0.010380)
 96:   1548.27   0.100823  509.52  0.020322  ( 0.140784 -0.017148  0.014404)
 97:   1560.29   0.131517  664.63  0.026304  ( 0.085837 -0.137601  0.001395)
 98:   1618.98   0.001868    9.44  0.000360  (-0.006771  0.015632  0.008360)
 99:   1646.94   0.020012  101.13  0.003792  (-0.038747  0.015130 -0.045405)
100:   1652.65   0.001076    5.44  0.000203  (-0.014029 -0.001591 -0.001945)
101:   2288.98   0.006960   35.17  0.000949  (-0.003842  0.023185  0.019914)
102:   2912.50   0.022760  115.02  0.002439  ( 0.022167  0.040719 -0.017008)
103:   2955.95   0.025728  130.02  0.002716  ( 0.021033  0.037056 -0.030010)
104:   3041.57   0.134950  681.98  0.013846  (-0.116978 -0.012600 -0.001767)
105:   3054.33   0.049188  248.58  0.005026  (-0.067586 -0.011991 -0.017719)
106:   3055.94   0.250141  1264.11  0.025544  ( 0.149264  0.053064  0.021167)
107:   3076.53   0.019432   98.20  0.001971  ( 0.003604  0.029211  0.033239)
108:   3079.49   0.017069   86.26  0.001730  (-0.040368 -0.007379  0.006756)
109:   3099.79   0.007872   39.78  0.000793  (-0.005031  0.017858 -0.021173)
110:   3121.51   0.003107   15.70  0.000311  ( 0.017316  0.000618 -0.003230)
111:   3136.56   0.003324   16.80  0.000331  ( 0.008128  0.012288  0.010659)
112:   3167.30   0.005883   29.73  0.000580  (-0.001165 -0.000397 -0.024044)
113:   3188.83   0.000908    4.59  0.000089  (-0.003499  0.007141  0.005059)
114:   3201.77   0.000613    3.10  0.000060  (-0.007521  0.001027 -0.001454)
115:   3228.40   0.001613    8.15  0.000156  ( 0.006538 -0.009541 -0.004708)
116:   3232.41   0.000876    4.43  0.000085  ( 0.007023  0.004372  0.004021)
117:   3459.64   0.000296    1.49  0.000027  ( 0.000055  0.005110  0.000745)
118:   3561.90   0.007757   39.20  0.000680  (-0.026063  0.000451 -0.000398)
119:   3810.86   0.013423   67.83  0.001099  (-0.020453 -0.013547  0.022300)

--------------------------
THERMOCHEMISTRY AT 298.15K
--------------------------

Temperature         ... 298.15 K
Pressure            ... 1.00 atm
Total Mass          ... 300.30 AMU

Throughout the following assumptions are being made:
  (1) The electronic state is orbitally nondegenerate
      but the spin degeneracy is treated
  (2) There are no thermally accessible electronically excited states
  (3) Hindered rotations indicated by low frequency modes are not
      treated as such but are treated as vibrations and this may
      cause some error
  (4) All equations used are the standard statistical mechanics
      equations for an ideal gas
  (5) All vibrations are strictly harmonic

freq.      13.65  E(vib)   ...       0.57
freq.      22.03  E(vib)   ...       0.56
freq.      26.61  E(vib)   ...       0.56
freq.      33.43  E(vib)   ...       0.55
freq.      38.02  E(vib)   ...       0.54
freq.      47.21  E(vib)   ...       0.53
freq.      49.30  E(vib)   ...       0.52
freq.      52.76  E(vib)   ...       0.52
freq.      62.95  E(vib)   ...       0.51
freq.      89.18  E(vib)   ...       0.47
freq.      93.22  E(vib)   ...       0.47
freq.     143.38  E(vib)   ...       0.41
freq.     163.43  E(vib)   ...       0.39
freq.     180.49  E(vib)   ...       0.37
freq.     187.88  E(vib)   ...       0.36
freq.     229.68  E(vib)   ...       0.32
freq.     235.89  E(vib)   ...       0.32
freq.     249.56  E(vib)   ...       0.31
freq.     279.82  E(vib)   ...       0.28
freq.     286.08  E(vib)   ...       0.27
freq.     301.91  E(vib)   ...       0.26
freq.     369.95  E(vib)   ...       0.21
freq.     391.65  E(vib)   ...       0.20
freq.     397.99  E(vib)   ...       0.20
freq.     438.15  E(vib)   ...       0.17
freq.     450.95  E(vib)   ...       0.17
freq.     470.97  E(vib)   ...       0.15
freq.     494.07  E(vib)   ...       0.14
freq.     511.19  E(vib)   ...       0.14
freq.     514.05  E(vib)   ...       0.13
freq.     526.95  E(vib)   ...       0.13
freq.     549.69  E(vib)   ...       0.12
freq.     586.51  E(vib)   ...       0.11
freq.     634.49  E(vib)   ...       0.09
freq.     670.96  E(vib)   ...       0.08
freq.     689.36  E(vib)   ...       0.07
freq.     697.45  E(vib)   ...       0.07
freq.     739.78  E(vib)   ...       0.06
freq.     752.12  E(vib)   ...       0.06
freq.     787.28  E(vib)   ...       0.05
freq.     811.53  E(vib)   ...       0.05
freq.     825.22  E(vib)   ...       0.04
freq.     835.75  E(vib)   ...       0.04
freq.     862.67  E(vib)   ...       0.04
freq.     866.44  E(vib)   ...       0.04
freq.     884.89  E(vib)   ...       0.04
freq.     888.38  E(vib)   ...       0.04
freq.     903.36  E(vib)   ...       0.03
freq.     922.07  E(vib)   ...       0.03
freq.     926.08  E(vib)   ...       0.03
freq.     941.89  E(vib)   ...       0.03
freq.     973.58  E(vib)   ...       0.03
freq.     983.59  E(vib)   ...       0.02
freq.     986.05  E(vib)   ...       0.02
freq.    1019.08  E(vib)   ...       0.02
freq.    1024.95  E(vib)   ...       0.02
freq.    1055.86  E(vib)   ...       0.02
freq.    1058.40  E(vib)   ...       0.02
freq.    1091.03  E(vib)   ...       0.02
freq.    1107.50  E(vib)   ...       0.02
freq.    1120.12  E(vib)   ...       0.01
freq.    1127.86  E(vib)   ...       0.01
freq.    1133.01  E(vib)   ...       0.01
freq.    1134.72  E(vib)   ...       0.01
freq.    1154.04  E(vib)   ...       0.01
freq.    1194.06  E(vib)   ...       0.01
freq.    1202.49  E(vib)   ...       0.01
freq.    1220.58  E(vib)   ...       0.01
freq.    1261.40  E(vib)   ...       0.01
freq.    1267.55  E(vib)   ...       0.01
freq.    1328.47  E(vib)   ...       0.01
freq.    1333.10  E(vib)   ...       0.01
freq.    1352.97  E(vib)   ...       0.01
freq.    1355.61  E(vib)   ...       0.01
freq.    1360.04  E(vib)   ...       0.01
freq.    1361.80  E(vib)   ...       0.01
freq.    1391.69  E(vib)   ...       0.00
freq.    1399.85  E(vib)   ...       0.00
freq.    1420.41  E(vib)   ...       0.00
freq.    1440.59  E(vib)   ...       0.00
freq.    1461.44  E(vib)   ...       0.00
freq.    1465.30  E(vib)   ...       0.00
freq.    1469.32  E(vib)   ...       0.00
freq.    1473.40  E(vib)   ...       0.00
freq.    1482.51  E(vib)   ...       0.00
freq.    1484.94  E(vib)   ...       0.00
freq.    1489.14  E(vib)   ...       0.00
freq.    1505.66  E(vib)   ...       0.00
freq.    1510.78  E(vib)   ...       0.00
freq.    1548.27  E(vib)   ...       0.00
freq.    1560.29  E(vib)   ...       0.00
freq.    1618.98  E(vib)   ...       0.00
freq.    1646.94  E(vib)   ...       0.00
freq.    1652.65  E(vib)   ...       0.00
freq.    2288.98  E(vib)   ...       0.00
freq.    2912.50  E(vib)   ...       0.00
freq.    2955.95  E(vib)   ...       0.00
freq.    3041.57  E(vib)   ...       0.00
freq.    3054.33  E(vib)   ...       0.00
freq.    3055.94  E(vib)   ...       0.00
freq.    3076.53  E(vib)   ...       0.00
freq.    3079.49  E(vib)   ...       0.00
freq.    3099.79  E(vib)   ...       0.00
freq.    3121.51  E(vib)   ...       0.00
freq.    3136.56  E(vib)   ...       0.00
freq.    3167.30  E(vib)   ...       0.00
freq.    3188.83  E(vib)   ...       0.00
freq.    3201.77  E(vib)   ...       0.00
freq.    3228.40  E(vib)   ...       0.00
freq.    3232.41  E(vib)   ...       0.00
freq.    3459.64  E(vib)   ...       0.00
freq.    3561.90  E(vib)   ...       0.00
freq.    3810.86  E(vib)   ...       0.00

------------
INNER ENERGY
------------

The inner energy is: U= E(el) + E(ZPE) + E(vib) + E(rot) + E(trans)
    E(el)   - is the total energy from the electronic structure calculation
              = E(kin-el) + E(nuc-el) + E(el-el) + E(nuc-nuc)
    E(ZPE)  - the the zero temperature vibrational energy from the frequency calculation
    E(vib)  - the the finite temperature correction to E(ZPE) due to population
              of excited vibrational states
    E(rot)  - is the rotational thermal energy
    E(trans)- is the translational thermal energy

Summary of contributions to the inner energy U:
Electronic energy                ...  -1063.55055534 Eh
Zero point energy                ...      0.31673955 Eh     198.76 kcal/mol
Thermal vibrational correction   ...      0.01952084 Eh      12.25 kcal/mol
Thermal rotational correction    ...      0.00141627 Eh       0.89 kcal/mol
Thermal translational correction ...      0.00141627 Eh       0.89 kcal/mol
-----------------------------------------------------------------------
Total thermal energy                  -1063.21146240 Eh

Summary of corrections to the electronic energy:
(perhaps to be used in another calculation)
Total thermal correction                  0.02235339 Eh      14.03 kcal/mol
Non-thermal (ZPE) correction              0.31673955 Eh     198.76 kcal/mol
-----------------------------------------------------------------------
Total correction                          0.33909294 Eh     212.78 kcal/mol

Rotational constants in cm-1:     0.022808     0.003885     0.003597

                             ****ORCA TERMINATED NORMALLY****
TOTAL RUN TIME: 0 days 2 hours 0 minutes 49 seconds 34 msec
