                         Program Version 5.0.4 -  RELEASE  -
|  1> ! NEB-TS b3lyp D3 def2-TZVP CPCM
|  2>
|  3> %pal
|  4> nprocs 102
|  5> end
|  6>
|  7> %cpcm
|  8> epsilon 78.4
|  9> end
| 10>
| 11> %neb
| 12> NEB_End_XYZFile "end.xyz"
| 13> Nimages 6
| 14> end
| 15>
| 16>
| 17> *XYZfile -1 1 start.xyz
| 18>
| 19>                          ****END OF INPUT****
 Total Charge           Charge          ....   -1
 Multiplicity           Mult            ....    1
 Number of Electrons    NEL             ....   74
Dispersion correction           -0.017979665
FINAL SINGLE POINT ENERGY      -550.061643138082
Dispersion correction            ... done
Dispersion correction           -0.018083204
FINAL SINGLE POINT ENERGY      -550.062244524972
Dispersion correction            ... done
Dispersion correction           -0.018159108
FINAL SINGLE POINT ENERGY      -550.062625741943
Dispersion correction            ... done
FINAL SINGLE POINT ENERGY      -550.063094737317
FINAL SINGLE POINT ENERGY      -550.063380980701
FINAL SINGLE POINT ENERGY      -550.063605186887
FINAL SINGLE POINT ENERGY      -550.063752800994
FINAL SINGLE POINT ENERGY      -550.063862548330
FINAL SINGLE POINT ENERGY      -550.063926043649
FINAL SINGLE POINT ENERGY      -550.063994313927
FINAL SINGLE POINT ENERGY      -550.064162831032
FINAL SINGLE POINT ENERGY      -550.064165403084
FINAL SINGLE POINT ENERGY      -550.064162728457
FINAL SINGLE POINT ENERGY      -550.064163816758
FINAL SINGLE POINT ENERGY      -550.064164203899
FINAL SINGLE POINT ENERGY      -550.064164095386
FINAL SINGLE POINT ENERGY      -550.064164080308
Dispersion correction            ... done
Dispersion correction           -0.019036880
FINAL SINGLE POINT ENERGY      -550.064163968550
Dispersion correction            ... done

CARTESIAN COORDINATES (ANGSTROEM)
---------------------------------
  C      0.269517   -1.769830    2.023607
  H      1.170166   -1.184510    1.176502
  H      0.458066   -1.376323    3.016270
  H      0.373843   -2.843843    1.918276
  N     -0.983359   -1.340220    1.545020
  O     -1.456045   -0.259952    1.948422
  O     -1.555237   -1.997316    0.654411
  C     -0.061752    1.062017   -1.531460
  O      0.720381    1.316976   -0.506475
  O     -0.122160   -0.026765   -2.088403
  C     -0.897312    2.244331   -1.955135
  H     -1.439456    2.020100   -2.870512
  H     -0.264075    3.120622   -2.100015
  H     -1.608573    2.482086   -1.160994
  H      1.258550    0.446064   -0.176123
  O      1.983435   -0.622198    0.400752
  H      2.154011   -1.271241   -0.294144

Dispersion correction           -0.019038390
FINAL SINGLE POINT ENERGY      -550.064163791664
Dispersion correction            ... done
                    ***********************HURRAY********************
 Multiplicity           Mult            ....    1
 Number of Electrons    NEL             ....   74
 Basis Dimension        Dim             ....  327

ORBITAL ENERGIES
----------------

  NO   OCC          E(Eh)            E(eV)
   0   2.0000     -19.125020      -520.4183
   1   2.0000     -19.124891      -520.4147
   2   2.0000     -19.124603      -520.4069
   3   2.0000     -19.093988      -519.5738
   4   2.0000     -19.082906      -519.2723
   5   2.0000     -14.517684      -395.0463
   6   2.0000     -10.285838      -279.8919
   7   2.0000     -10.166633      -276.6482
   8   2.0000     -10.161671      -276.5131
   9   2.0000      -1.189589       -32.3704
  10   2.0000      -1.073900       -29.2223
  11   2.0000      -1.012135       -27.5416
  12   2.0000      -0.986677       -26.8488
  13   2.0000      -0.944263       -25.6947
  14   2.0000      -0.788026       -21.4433
  15   2.0000      -0.734214       -19.9790
  16   2.0000      -0.582763       -15.8578
  17   2.0000      -0.579476       -15.7683
  18   2.0000      -0.515294       -14.0219
  19   2.0000      -0.503547       -13.7022
  20   2.0000      -0.499141       -13.5823
  21   2.0000      -0.480056       -13.0630
  22   2.0000      -0.457886       -12.4597
  23   2.0000      -0.451952       -12.2982
  24   2.0000      -0.446469       -12.1490
  25   2.0000      -0.404850       -11.0165
  26   2.0000      -0.400555       -10.8997
  27   2.0000      -0.386933       -10.5290
  28   2.0000      -0.373944       -10.1755
  29   2.0000      -0.351703        -9.5703
  30   2.0000      -0.302449        -8.2300
  31   2.0000      -0.297723        -8.1015
  32   2.0000      -0.292545        -7.9606
  33   2.0000      -0.280504        -7.6329
  34   2.0000      -0.268358        -7.3024
  35   2.0000      -0.262903        -7.1540
  36   2.0000      -0.227947        -6.2028
  37   0.0000      -0.045774        -1.2456
  38   0.0000       0.021581         0.5872
  39   0.0000       0.050177         1.3654
  40   0.0000       0.069670         1.8958
  41   0.0000       0.098725         2.6865

-------
TIMINGS
-------

Dispersion correction           -0.019039945
FINAL SINGLE POINT ENERGY      -550.064163663657
                    ***********************HURRAY************************

DIPOLE MOMENT
-------------
                                X             Y             Z
Electronic contribution:     -3.00208      -2.02830       0.74421
Nuclear contribution   :      3.43106       2.60863      -1.00186
                        -----------------------------------------
Total Dipole Moment    :      0.42898       0.58033      -0.25765
                        -----------------------------------------
Magnitude (a.u.)       :      0.76628
Magnitude (Debye)      :      1.94773

Rotational constants in cm-1:     0.066251     0.028227     0.024561
Rotational constants in MHz :  1986.141992   846.235406   736.311137

                             ****ORCA TERMINATED NORMALLY****
TOTAL RUN TIME: 0 days 1 hours 5 minutes 19 seconds 687 msec
