                         Program Version 5.0.4 -  RELEASE  -
|  1> !  NUMFREQ B3LYP def2-TZVP CPCM D3
|  2> %pal nprocs 102 end
|  3> %cpcm epsilon 78.4 end
|  4> *xyz 0 1
|  5> C   -2.40369595441341 0.92468978107424 0.50384388028558
|  6> H   -2.99202340950652 1.34425730935875 -0.30427158781118
|  7> N   -3.76427695048856 -1.1171790420631 0.30926302642702
|  8> O   -4.45043295946184 -0.59897932297879 -0.59216636581331
|  9> O   -4.07042135509454 -2.22739902020546 0.79296167488204
| 10> H   -0.93072632452943 1.32071680533656 1.97569674130898
| 11> C   -2.56990363704369 -0.50616531926177 0.7368757072009
| 12> H   -1.62793530268061 -1.1272658482633 -0.16982449937682
| 13> H   -2.26355954153605 -0.90601841845413 1.69676560309731
| 14> C   -1.54455629677145 1.7040420815009 1.16823351231703
| 15> H   -1.43015246591443 2.74974420062596 0.91440125338206
| 16> C   1.70286084111249 -0.06621555681325 0.5981779260382
| 17> C   2.87957260789881 0.62726278085099 0.82641521592743
| 18> C   3.69654953965492 0.92883058157926 -0.2571461676987
| 19> C   3.31116989780019 0.52696515957973 -1.53081112861897
| 20> C   2.11907577132969 -0.16276093540315 -1.67737909067749
| 21> N   1.33869219801862 -0.44837026687788 -0.62996765968814
| 22> H   1.02606864091253 -0.32520802870671 1.40186219807947
| 23> H   3.14551293009132 0.92332258221716 1.83140719842103
| 24> H   3.92039768622692 0.74221641119258 -2.39739662292605
| 25> H   1.76827993832821 -0.49929021717647 -2.64461898746121
| 26> H   4.62228043114796 1.47004049843095 -0.11105819452138
| 27> H   -0.77798250502955 -2.55104811234406 -0.70210254350091
| 28> H   0.15628011545338 -1.11083491103953 -0.80129799446406
| 29> O   -0.86107389550497 -1.61535319215947 -0.93786309480882
| 30> *
| 31>
| 32>                          ****END OF INPUT****

CARTESIAN COORDINATES (ANGSTROEM)
---------------------------------
  C     -2.403696    0.924690    0.503844
  H     -2.992023    1.344257   -0.304272
  N     -3.764277   -1.117179    0.309263
  O     -4.450433   -0.598979   -0.592166
  O     -4.070421   -2.227399    0.792962
  H     -0.930726    1.320717    1.975697
  C     -2.569904   -0.506165    0.736876
  H     -1.627935   -1.127266   -0.169824
  H     -2.263560   -0.906018    1.696766
  C     -1.544556    1.704042    1.168234
  H     -1.430152    2.749744    0.914401
  C      1.702861   -0.066216    0.598178
  C      2.879573    0.627263    0.826415
  C      3.696550    0.928831   -0.257146
  C      3.311170    0.526965   -1.530811
  C      2.119076   -0.162761   -1.677379
  N      1.338692   -0.448370   -0.629968
  H      1.026069   -0.325208    1.401862
  H      3.145513    0.923323    1.831407
  H      3.920398    0.742216   -2.397397
  H      1.768280   -0.499290   -2.644619
  H      4.622280    1.470040   -0.111058
  H     -0.777983   -2.551048   -0.702103
  H      0.156280   -1.110835   -0.801298
  O     -0.861074   -1.615353   -0.937863

 Total Charge           Charge          ....    0
 Multiplicity           Mult            ....    1
 Number of Electrons    NEL             ....   98
 Basis Dimension        Dim             ....  475

ORBITAL ENERGIES
----------------

  NO   OCC          E(Eh)            E(eV)
   0   2.0000     -19.147827      -521.0389
   1   2.0000     -19.127559      -520.4873
   2   2.0000     -19.125507      -520.4315
   3   2.0000     -14.520137      -395.1130
   4   2.0000     -14.357644      -390.6913
   5   2.0000     -10.229077      -278.3473
   6   2.0000     -10.228665      -278.3361
   7   2.0000     -10.204901      -277.6895
   8   2.0000     -10.195064      -277.4218
   9   2.0000     -10.195016      -277.4205
  10   2.0000     -10.183095      -277.0961
  11   2.0000     -10.174692      -276.8674
  12   2.0000     -10.153712      -276.2965
  13   2.0000      -1.191446       -32.4209
  14   2.0000      -1.026506       -27.9326
  15   2.0000      -1.014007       -27.5925
  16   2.0000      -0.978285       -26.6205
  17   2.0000      -0.824165       -22.4267
  18   2.0000      -0.820299       -22.3215
  19   2.0000      -0.785638       -21.3783
  20   2.0000      -0.744471       -20.2581
  21   2.0000      -0.654622       -17.8132
  22   2.0000      -0.649093       -17.6627
  23   2.0000      -0.606040       -16.4912
  24   2.0000      -0.570530       -15.5249
  25   2.0000      -0.554426       -15.0867
  26   2.0000      -0.534370       -14.5410
  27   2.0000      -0.521281       -14.1848
  28   2.0000      -0.520112       -14.1530
  29   2.0000      -0.505417       -13.7531
  30   2.0000      -0.495833       -13.4923
  31   2.0000      -0.485175       -13.2023
  32   2.0000      -0.480058       -13.0630
  33   2.0000      -0.448922       -12.2158
  34   2.0000      -0.430691       -11.7197
  35   2.0000      -0.426889       -11.6162
  36   2.0000      -0.422870       -11.5069
  37   2.0000      -0.414780       -11.2867
  38   2.0000      -0.382535       -10.4093
  39   2.0000      -0.378463       -10.2985
  40   2.0000      -0.353528        -9.6200
  41   2.0000      -0.314576        -8.5600
  42   2.0000      -0.311131        -8.4663
  43   2.0000      -0.305166        -8.3040
  44   2.0000      -0.299157        -8.1405
  45   2.0000      -0.295823        -8.0497
  46   2.0000      -0.285300        -7.7634
  47   2.0000      -0.272211        -7.4072
  48   2.0000      -0.214619        -5.8401
  49   0.0000      -0.057155        -1.5553
  50   0.0000      -0.049565        -1.3487
  51   0.0000      -0.034755        -0.9457
  52   0.0000       0.014460         0.3935
  53   0.0000       0.041606         1.1321

MULLIKEN ATOMIC CHARGES
-----------------------
   0 C :   -0.110803
   1 H :    0.134757
   2 N :    0.426164
   3 O :   -0.453354
   4 O :   -0.462582
   5 H :    0.133206
   6 C :   -0.307912
   7 H :    0.343458
   8 H :    0.150538
   9 C :   -0.369912
  10 H :    0.137352
  11 C :    0.008066
  12 C :   -0.125593
  13 C :   -0.100965
  14 C :   -0.127701
  15 C :    0.005178
  16 N :   -0.256063
  17 H :    0.186483
  18 H :    0.166554
  19 H :    0.167027
  20 H :    0.174214
  21 H :    0.169197
  22 H :    0.373262
  23 H :    0.339109
  24 O :   -0.599680
Sum of atomic charges:   -0.0000000

LOEWDIN ATOMIC CHARGES
----------------------
   0 C :   -0.236334
   1 H :    0.145436
   2 N :   -0.062539
   3 O :   -0.159236
   4 O :   -0.173389
   5 H :    0.121391
   6 C :   -0.324963
   7 H :    0.184828
   8 H :    0.142068
   9 C :   -0.244634
  10 H :    0.122014
  11 C :   -0.159614
  12 C :   -0.120892
  13 C :   -0.084668
  14 C :   -0.121222
  15 C :   -0.158651
  16 N :    0.172160
  17 H :    0.152982
  18 H :    0.160185
  19 H :    0.160088
  20 H :    0.153620
  21 H :    0.160649
  22 H :    0.180356
  23 H :    0.159296
  24 O :   -0.168931

  Mayer bond orders larger than 0.100000
B(  0-C ,  1-H ) :   0.9459 B(  0-C ,  6-C ) :   1.0157 B(  0-C ,  9-C ) :   1.8179
B(  2-N ,  3-O ) :   1.4889 B(  2-N ,  4-O ) :   1.4625 B(  2-N ,  6-C ) :   1.1066
B(  3-O ,  4-O ) :   0.1225 B(  4-O ,  6-C ) :   0.1031 B(  5-H ,  9-C ) :   0.9685
B(  6-C ,  7-H ) :   0.3494 B(  6-C ,  8-H ) :   0.9386 B(  7-H , 24-O ) :   0.5310
B(  9-C , 10-H ) :   0.9716 B( 11-C , 12-C ) :   1.4360 B( 11-C , 16-N ) :   1.3310
B( 11-C , 17-H ) :   0.9398 B( 12-C , 13-C ) :   1.4114 B( 12-C , 18-H ) :   0.9566
B( 13-C , 14-C ) :   1.4119 B( 13-C , 21-H ) :   0.9505 B( 14-C , 15-C ) :   1.4388
B( 14-C , 19-H ) :   0.9551 B( 15-C , 16-N ) :   1.3566 B( 15-C , 20-H ) :   0.9442
B( 16-N , 23-H ) :   0.3906 B( 22-H , 24-O ) :   0.8568 B( 23-H , 24-O ) :   0.5493

Dispersion correction           -0.039902775
FINAL SINGLE POINT ENERGY      -647.068683100339
Dispersion correction            ... done

DIPOLE MOMENT
-------------
                                X             Y             Z
Electronic contribution:     -3.03933      -3.55526      -1.38215
Nuclear contribution   :      9.89426       4.48305       1.32014
                        -----------------------------------------
Total Dipole Moment    :      6.85493       0.92778      -0.06200
                        -----------------------------------------
Magnitude (a.u.)       :      6.91771
Magnitude (Debye)      :     17.58342

VIBRATIONAL FREQUENCIES
-----------------------

Scaling factor for frequencies =  1.000000000 (already applied!)

   0:         0.00 cm**-1
   1:         0.00 cm**-1
   2:         0.00 cm**-1
   3:         0.00 cm**-1
   4:         0.00 cm**-1
   5:         0.00 cm**-1
   6:     -1445.59 cm**-1 ***imaginary mode***
   7:         5.79 cm**-1
   8:        25.84 cm**-1
   9:        36.29 cm**-1
  10:        67.42 cm**-1
  11:        73.83 cm**-1
  12:        96.70 cm**-1
  13:       102.24 cm**-1
  14:       116.71 cm**-1
  15:       172.50 cm**-1
  16:       196.80 cm**-1
  17:       219.15 cm**-1
  18:       401.05 cm**-1
  19:       402.96 cm**-1
  20:       415.86 cm**-1
  21:       472.04 cm**-1
  22:       492.87 cm**-1
  23:       549.55 cm**-1
  24:       644.52 cm**-1
  25:       661.17 cm**-1
  26:       665.13 cm**-1
  27:       714.45 cm**-1
  28:       724.58 cm**-1
  29:       741.31 cm**-1
  30:       761.63 cm**-1
  31:       781.02 cm**-1
  32:       830.22 cm**-1
  33:       897.01 cm**-1
  34:       901.02 cm**-1
  35:       938.18 cm**-1
  36:       979.29 cm**-1
  37:      1017.33 cm**-1
  38:      1026.96 cm**-1
  39:      1033.47 cm**-1
  40:      1041.91 cm**-1
  41:      1050.75 cm**-1
  42:      1064.34 cm**-1
  43:      1081.33 cm**-1
  44:      1087.51 cm**-1
  45:      1106.51 cm**-1
  46:      1173.47 cm**-1
  47:      1188.20 cm**-1
  48:      1229.68 cm**-1
  49:      1239.32 cm**-1
  50:      1284.37 cm**-1
  51:      1299.48 cm**-1
  52:      1311.25 cm**-1
  53:      1375.43 cm**-1
  54:      1396.34 cm**-1
  55:      1422.92 cm**-1
  56:      1430.15 cm**-1
  57:      1468.09 cm**-1
  58:      1504.10 cm**-1
  59:      1527.41 cm**-1
  60:      1581.73 cm**-1
  61:      1604.27 cm**-1
  62:      1633.40 cm**-1
  63:      1651.74 cm**-1
  64:      1666.31 cm**-1
  65:      3131.25 cm**-1
  66:      3155.19 cm**-1
  67:      3166.75 cm**-1
  68:      3189.05 cm**-1
  69:      3192.12 cm**-1
  70:      3197.65 cm**-1
  71:      3210.42 cm**-1
  72:      3213.77 cm**-1
  73:      3217.19 cm**-1
  74:      3761.40 cm**-1

IR SPECTRUM
-----------

 Mode   freq       eps      Int      T**2         TX        TY        TZ
       cm**-1   L/(mol*cm) km/mol    a.u.
----------------------------------------------------------------------------
  7:      5.79   0.000717    3.62  0.038650  ( 0.028747 -0.020258  0.193426)
  8:     25.84   0.000081    0.41  0.000976  ( 0.023828  0.020180 -0.000953)
  9:     36.29   0.000148    0.75  0.001271  (-0.011246  0.031578  0.012153)
 10:     67.42   0.003089   15.61  0.014296  ( 0.014056 -0.090764 -0.076553)
 11:     73.83   0.000191    0.97  0.000807  ( 0.009681 -0.009511 -0.024959)
 12:     96.70   0.001199    6.06  0.003869  (-0.054729 -0.011457 -0.027253)
 13:    102.24   0.001963    9.92  0.005992  (-0.017712 -0.056413 -0.049954)
 14:    116.71   0.007831   39.57  0.020938  (-0.112368 -0.090056 -0.014178)
 15:    172.50   0.040446  204.40  0.073169  (-0.107314 -0.215414 -0.123487)
 16:    196.80   0.036421  184.06  0.057752  ( 0.084851  0.202681  0.097331)
 17:    219.15   0.003230   16.32  0.004599  (-0.013036 -0.065597 -0.011221)
 18:    401.05   0.000420    2.12  0.000327  ( 0.016394 -0.005525 -0.005271)
 19:    402.96   0.000127    0.64  0.000098  ( 0.007571  0.001315  0.006278)
 20:    415.86   0.004354   22.01  0.003268  (-0.039297 -0.014481 -0.038906)
 21:    472.04   0.015640   79.04  0.010339  ( 0.045409  0.053177  0.073822)
 22:    492.87   0.017332   87.59  0.010974  (-0.005149  0.078723  0.068918)
 23:    549.55   0.007171   36.24  0.004072  ( 0.052978  0.018743 -0.030236)
 24:    644.52   0.016090   81.31  0.007790  ( 0.052961  0.063545  0.030783)
 25:    661.17   0.042591  215.24  0.020102  ( 0.090456  0.099365  0.045240)
 26:    665.13   0.000018    0.09  0.000008  (-0.001263  0.001534  0.002097)
 27:    714.45   0.016965   85.73  0.007410  ( 0.044515 -0.069083  0.025610)
 28:    724.58   0.013403   67.73  0.005772  ( 0.015332 -0.041583 -0.061709)
 29:    741.31   0.027959  141.29  0.011770  ( 0.097289 -0.017661 -0.044637)
 30:    761.63   0.009276   46.88  0.003801  ( 0.057205  0.022795  0.002934)
 31:    781.02   0.018618   94.09  0.007439  (-0.058288  0.062197  0.013158)
 32:    830.22   0.286755  1449.14  0.107786  ( 0.245893  0.208237  0.062928)
 33:    897.01   0.018148   91.71  0.006314  ( 0.022921 -0.046885 -0.059918)
 34:    901.02   0.002246   11.35  0.000778  ( 0.006976 -0.016978 -0.021001)
 35:    938.18   0.001184    5.98  0.000394  (-0.016994  0.003393 -0.009674)
 36:    979.29   0.000772    3.90  0.000246  ( 0.014626 -0.004381  0.003595)
 37:   1017.33   0.000308    1.56  0.000095  (-0.006432 -0.006905 -0.002354)
 38:   1026.96   0.095297  481.59  0.028958  ( 0.049101  0.141224  0.081258)
 39:   1033.47   0.010643   53.79  0.003214  (-0.041103  0.009079  0.037973)
 40:   1041.91   0.000017    0.08  0.000005  ( 0.000872 -0.001518 -0.001374)
 41:   1050.75   0.010840   54.78  0.003219  (-0.014273 -0.051777 -0.018297)
 42:   1064.34   0.048867  246.96  0.014328  (-0.064642 -0.081262 -0.059547)
 43:   1081.33   0.073357  370.72  0.021170  (-0.086656 -0.101345 -0.058226)
 44:   1087.51   0.002995   15.14  0.000859  ( 0.019472  0.019891 -0.009202)
 45:   1106.51   0.038754  195.85  0.010930  (-0.054496 -0.077798 -0.043672)
 46:   1173.47   0.001209    6.11  0.000322  (-0.004212 -0.000002  0.017429)
 47:   1188.20   0.012294   62.13  0.003229  (-0.051360 -0.010575 -0.021886)
 48:   1229.68   0.000328    1.66  0.000083  ( 0.002264 -0.007208 -0.005109)
 49:   1239.32   0.018623   94.11  0.004689  (-0.066041 -0.018005 -0.001949)
 50:   1284.37   0.027117  137.04  0.006589  (-0.011250 -0.076749  0.023911)
 51:   1299.48   0.004276   21.61  0.001027  ( 0.014780  0.000339  0.028432)
 52:   1311.25   0.034834  176.04  0.008290  (-0.004467 -0.086586  0.027802)
 53:   1375.43   0.014160   71.56  0.003213  (-0.037630 -0.020863 -0.036898)
 54:   1396.34   0.177775  898.40  0.039730  (-0.102733 -0.130335 -0.110404)
 55:   1422.92   0.054404  274.93  0.011931  (-0.060472 -0.061116 -0.067374)
 56:   1430.15   0.083504  422.00  0.018221  ( 0.001059 -0.127397  0.044607)
 57:   1468.09   0.027301  137.97  0.005803  ( 0.019623 -0.039271  0.062258)
 58:   1504.10   0.033541  169.50  0.006959  (-0.031646 -0.050335  0.058515)
 59:   1527.41   0.015578   78.72  0.003183  (-0.044916 -0.033874 -0.004220)
 60:   1581.73   0.019102   96.53  0.003769  ( 0.060125  0.007322  0.009999)
 61:   1604.27   0.010504   53.08  0.002043  (-0.023201  0.038611  0.003762)
 62:   1633.40   0.007644   38.63  0.001460  ( 0.007179 -0.018226 -0.032812)
 63:   1651.74   0.005997   30.31  0.001133  (-0.029635 -0.015358 -0.004353)
 64:   1666.31   0.012854   64.96  0.002407  (-0.037924 -0.031007 -0.002750)
 65:   3131.25   0.001921    9.71  0.000191  ( 0.010731  0.002395  0.008402)
 66:   3155.19   0.000359    1.81  0.000035  ( 0.003915 -0.004104  0.001819)
 67:   3166.75   0.000743    3.75  0.000073  (-0.001625 -0.007685  0.003391)
 68:   3189.05   0.000193    0.98  0.000019  ( 0.003415  0.001462 -0.002263)
 69:   3192.12   0.000539    2.73  0.000053  (-0.001692 -0.002296 -0.006678)
 70:   3197.65   0.000424    2.14  0.000041  (-0.005792 -0.002747  0.000523)
 71:   3210.42   0.000889    4.49  0.000086  ( 0.002337 -0.000517 -0.008981)
 72:   3213.77   0.000035    0.18  0.000003  (-0.000039  0.001549  0.001001)
 73:   3217.19   0.003025   15.29  0.000293  ( 0.005132 -0.013448  0.009286)
 74:   3761.40   0.026251  132.66  0.002178  ( 0.005365 -0.046085  0.005033)

--------------------------
THERMOCHEMISTRY AT 298.15K
--------------------------

Temperature         ... 298.15 K
Pressure            ... 1.00 atm
Total Mass          ... 184.19 AMU

Throughout the following assumptions are being made:
  (1) The electronic state is orbitally nondegenerate
  (2) There are no thermally accessible electronically excited states
  (3) Hindered rotations indicated by low frequency modes are not
      treated as such but are treated as vibrations and this may
      cause some error
  (4) All equations used are the standard statistical mechanics
      equations for an ideal gas
  (5) All vibrations are strictly harmonic

freq.       5.79  E(vib)   ...       0.58
freq.      25.84  E(vib)   ...       0.56
freq.      36.29  E(vib)   ...       0.54
freq.      67.42  E(vib)   ...       0.50
freq.      73.83  E(vib)   ...       0.49
freq.      96.70  E(vib)   ...       0.46
freq.     102.24  E(vib)   ...       0.46
freq.     116.71  E(vib)   ...       0.44
freq.     172.50  E(vib)   ...       0.38
freq.     196.80  E(vib)   ...       0.36
freq.     219.15  E(vib)   ...       0.33
freq.     401.05  E(vib)   ...       0.19
freq.     402.96  E(vib)   ...       0.19
freq.     415.86  E(vib)   ...       0.18
freq.     472.04  E(vib)   ...       0.15
freq.     492.87  E(vib)   ...       0.14
freq.     549.55  E(vib)   ...       0.12
freq.     644.52  E(vib)   ...       0.09
freq.     661.17  E(vib)   ...       0.08
freq.     665.13  E(vib)   ...       0.08
freq.     714.45  E(vib)   ...       0.07
freq.     724.58  E(vib)   ...       0.06
freq.     741.31  E(vib)   ...       0.06
freq.     761.63  E(vib)   ...       0.06
freq.     781.02  E(vib)   ...       0.05
freq.     830.22  E(vib)   ...       0.04
freq.     897.01  E(vib)   ...       0.03
freq.     901.02  E(vib)   ...       0.03
freq.     938.18  E(vib)   ...       0.03
freq.     979.29  E(vib)   ...       0.03
freq.    1017.33  E(vib)   ...       0.02
freq.    1026.96  E(vib)   ...       0.02
freq.    1033.47  E(vib)   ...       0.02
freq.    1041.91  E(vib)   ...       0.02
freq.    1050.75  E(vib)   ...       0.02
freq.    1064.34  E(vib)   ...       0.02
freq.    1081.33  E(vib)   ...       0.02
freq.    1087.51  E(vib)   ...       0.02
freq.    1106.51  E(vib)   ...       0.02
freq.    1173.47  E(vib)   ...       0.01
freq.    1188.20  E(vib)   ...       0.01
freq.    1229.68  E(vib)   ...       0.01
freq.    1239.32  E(vib)   ...       0.01
freq.    1284.37  E(vib)   ...       0.01
freq.    1299.48  E(vib)   ...       0.01
freq.    1311.25  E(vib)   ...       0.01
freq.    1375.43  E(vib)   ...       0.01
freq.    1396.34  E(vib)   ...       0.00
freq.    1422.92  E(vib)   ...       0.00
freq.    1430.15  E(vib)   ...       0.00
freq.    1468.09  E(vib)   ...       0.00
freq.    1504.10  E(vib)   ...       0.00
freq.    1527.41  E(vib)   ...       0.00
freq.    1581.73  E(vib)   ...       0.00
freq.    1604.27  E(vib)   ...       0.00
freq.    1633.40  E(vib)   ...       0.00
freq.    1651.74  E(vib)   ...       0.00
freq.    1666.31  E(vib)   ...       0.00
freq.    3131.25  E(vib)   ...       0.00
freq.    3155.19  E(vib)   ...       0.00
freq.    3166.75  E(vib)   ...       0.00
freq.    3189.05  E(vib)   ...       0.00
freq.    3192.12  E(vib)   ...       0.00
freq.    3197.65  E(vib)   ...       0.00
freq.    3210.42  E(vib)   ...       0.00
freq.    3213.77  E(vib)   ...       0.00
freq.    3217.19  E(vib)   ...       0.00
freq.    3761.40  E(vib)   ...       0.00

------------
INNER ENERGY
------------

The inner energy is: U= E(el) + E(ZPE) + E(vib) + E(rot) + E(trans)
    E(el)   - is the total energy from the electronic structure calculation
              = E(kin-el) + E(nuc-el) + E(el-el) + E(nuc-nuc)
    E(ZPE)  - the the zero temperature vibrational energy from the frequency calculation
    E(vib)  - the the finite temperature correction to E(ZPE) due to population
              of excited vibrational states
    E(rot)  - is the rotational thermal energy
    E(trans)- is the translational thermal energy

Summary of contributions to the inner energy U:
Electronic energy                ...   -647.06868310 Eh
Zero point energy                ...      0.18913274 Eh     118.68 kcal/mol
Thermal vibrational correction   ...      0.01128335 Eh       7.08 kcal/mol
Thermal rotational correction    ...      0.00141627 Eh       0.89 kcal/mol
Thermal translational correction ...      0.00141627 Eh       0.89 kcal/mol
-----------------------------------------------------------------------
Total thermal energy                   -646.86543447 Eh

Summary of corrections to the electronic energy:
(perhaps to be used in another calculation)
Total thermal correction                  0.01411589 Eh       8.86 kcal/mol
Non-thermal (ZPE) correction              0.18913274 Eh     118.68 kcal/mol
-----------------------------------------------------------------------
Total correction                          0.20324863 Eh     127.54 kcal/mol

--------
ENTHALPY
--------

The enthalpy is H = U + kB*T
                kB is Boltzmann's constant
Total free energy                 ...   -646.86543447 Eh
Thermal Enthalpy correction       ...      0.00094421 Eh       0.59 kcal/mol
-----------------------------------------------------------------------
Total Enthalpy                    ...   -646.86449026 Eh

Note: Only C1 symmetry has been detected, increase convergence thresholds
      if your molecule has a higher symmetry. Symmetry factor of 1.0 is
      used for the rotational entropy correction.

Note: Rotational entropy computed according to Herzberg
Infrared and Raman Spectra, Chapter V,1, Van Nostrand Reinhold, 1945
Point Group:  C1, Symmetry Number:   1
Rotational constants in cm-1:     0.053687     0.010053     0.009349

Vibrational entropy computed according to the QRRHO of S. Grimme
Chem.Eur.J. 2012 18 9955

-------
ENTROPY
-------

The entropy contributions are T*S = T*(S(el)+S(vib)+S(rot)+S(trans))
     S(el)   - electronic entropy
     S(vib)  - vibrational entropy
     S(rot)  - rotational entropy
     S(trans)- translational entropy
The entropies will be listed as multiplied by the temperature to get
units of energy

Electronic entropy                ...      0.00000000 Eh      0.00 kcal/mol
Vibrational entropy               ...      0.02152830 Eh     13.51 kcal/mol
Rotational entropy                ...      0.01526889 Eh      9.58 kcal/mol
Translational entropy             ...      0.01973634 Eh     12.38 kcal/mol
-----------------------------------------------------------------------
Final entropy term                ...      0.05653353 Eh     35.48 kcal/mol

                             ****ORCA TERMINATED NORMALLY****
TOTAL RUN TIME: 0 days 0 hours 19 minutes 49 seconds 792 msec
