                         Program Version 5.0.4 -  RELEASE  -
|  1> !  NUMFREQ B3LYP def2-TZVP CPCM D3
|  2> %pal nprocs 102 end
|  3> %cpcm epsilon 78.4 end
|  4> *xyz 0 1
|  5> C   -2.89239105548574 2.45349902017325 -1.24941269682049
|  6> C   -1.88653673625055 1.49344312772319 -1.19081148486341
|  7> C   -2.2106152546702 0.14632520380399 -1.02666580045006
|  8> C   -3.55071816985355 -0.2252392814536 -0.91140869178796
|  9> C   -4.55317377993506 0.73474883050097 -0.97189342539296
| 10> C   -4.22674830898565 2.07685719654165 -1.14360827553367
| 11> H   -2.63164369162943 3.495758389769 -1.38099001600746
| 12> H   -0.84959121926443 1.80091901220157 -1.26354707201041
| 13> H   -3.81703635057807 -1.2665542985691 -0.78851005772408
| 14> H   -5.00901765682598 2.8237563401233 -1.19647445123631
| 15> C   -1.10121213274973 -0.88429120463826 -0.98975272211924
| 16> C   -1.10965568944883 -1.76403161022041 0.25346719424318
| 17> H   -0.37378620672677 -2.57440022369902 0.1538483549679
| 18> H   -2.10440845011762 -2.17201471980174 0.41070918707733
| 19> H   -0.81447459088122 -1.14164648421954 1.09078193234853
| 20> N   -1.23495210442454 -1.74828280817933 -2.24779724742613
| 21> O   -0.5388647423416 -1.45354383070275 -3.20496214945754
| 22> O   -2.0399738761596 -2.66389043083469 -2.24350588206541
| 23> N   1.94647091538211 0.28271342247948 0.58751667168113
| 24> C   2.43101907985937 -1.09394751628072 0.54963412620235
| 25> C   2.41143378382228 -1.68432310974046 1.94829104531284
| 26> N   3.23420481988052 -0.84875532731058 2.82907448935604
| 27> C   2.74466834534084 0.53298382363081 2.86283861116704
| 28> C   2.7690599468393 1.1162257519199 1.45337376274858
| 29> H   2.36819977919869 2.13155533942572 1.46652372818679
| 30> H   3.81710623691325 1.16881917181036 1.11433911535287
| 31> H   3.38674534394245 1.11838067798334 3.52335927948464
| 32> H   1.71382888588239 0.59476367727806 3.2462900113036
| 33> H   2.81899658793442 -2.69661713313033 1.92970563171574
| 34> H   1.36472553729353 -1.73985712546382 2.30013671267167
| 35> H   3.45734348207964 -1.16066040450147 0.15132613504871
| 36> H   -0.14276034083957 -0.38445242797413 -1.15361204395509
| 37> H   1.86659815113853 0.63150657055322 -0.35962552516818
| 38> H   1.77802080362411 -1.66315670678529 -0.09743893073504
| 39> H   3.23488842275182 -1.23414185071469 3.76633094108981
| 40> H   2.04803491796464 1.33886212844569 -3.02886553688686
| 41> H   1.78856128777585 2.45750486554741 -2.0305676101152
| 42> O   1.49819883895762 1.56801327423421 -2.26919863011927
| 43> H   -5.59054480941323 0.43317067007478 -0.88889868008399
| 44> *
| 45>
| 46>                          ****END OF INPUT****

CARTESIAN COORDINATES (ANGSTROEM)
---------------------------------
  C     -2.892391    2.453499   -1.249413
  C     -1.886537    1.493443   -1.190811
  C     -2.210615    0.146325   -1.026666
  C     -3.550718   -0.225239   -0.911409
  C     -4.553174    0.734749   -0.971893
  C     -4.226748    2.076857   -1.143608
  H     -2.631644    3.495758   -1.380990
  H     -0.849591    1.800919   -1.263547
  H     -3.817036   -1.266554   -0.788510
  H     -5.009018    2.823756   -1.196474
  C     -1.101212   -0.884291   -0.989753
  C     -1.109656   -1.764032    0.253467
  H     -0.373786   -2.574400    0.153848
  H     -2.104408   -2.172015    0.410709
  H     -0.814475   -1.141646    1.090782
  N     -1.234952   -1.748283   -2.247797
  O     -0.538865   -1.453544   -3.204962
  O     -2.039974   -2.663890   -2.243506
  N      1.946471    0.282713    0.587517
  C      2.431019   -1.093948    0.549634
  C      2.411434   -1.684323    1.948291
  N      3.234205   -0.848755    2.829074
  C      2.744668    0.532984    2.862839
  C      2.769060    1.116226    1.453374
  H      2.368200    2.131555    1.466524
  H      3.817106    1.168819    1.114339
  H      3.386745    1.118381    3.523359
  H      1.713829    0.594764    3.246290
  H      2.818997   -2.696617    1.929706
  H      1.364726   -1.739857    2.300137
  H      3.457343   -1.160660    0.151326
  H     -0.142760   -0.384452   -1.153612
  H      1.866598    0.631507   -0.359626
  H      1.778021   -1.663157   -0.097439
  H      3.234888   -1.234142    3.766331
  H      2.048035    1.338862   -3.028866
  H      1.788561    2.457505   -2.030568
  O      1.498199    1.568013   -2.269199
  H     -5.590545    0.433171   -0.888899

 Total Charge           Charge          ....    0
 Multiplicity           Mult            ....    1
 Number of Electrons    NEL             ....  138
 Basis Dimension        Dim             ....  684

ORBITAL ENERGIES
----------------

  NO   OCC          E(Eh)            E(eV)
   0   2.0000     -19.170892      -521.6665
   1   2.0000     -19.170667      -521.6604
   2   2.0000     -19.129076      -520.5286
   3   2.0000     -14.552027      -395.9808
   4   2.0000     -14.292889      -388.9293
   5   2.0000     -14.286605      -388.7583
   6   2.0000     -10.236467      -278.5484
   7   2.0000     -10.193654      -277.3834
   8   2.0000     -10.180706      -277.0311
   9   2.0000     -10.180393      -277.0226
  10   2.0000     -10.180067      -277.0137
  11   2.0000     -10.178460      -276.9700
  12   2.0000     -10.177928      -276.9555
  13   2.0000     -10.177885      -276.9543
  14   2.0000     -10.176992      -276.9300
  15   2.0000     -10.176475      -276.9160
  16   2.0000     -10.175836      -276.8986
  17   2.0000     -10.170355      -276.7494
  18   2.0000      -1.241631       -33.7865
  19   2.0000      -1.068509       -29.0756
  20   2.0000      -1.013014       -27.5655
  21   2.0000      -0.922755       -25.1094
  22   2.0000      -0.875183       -23.8149
  23   2.0000      -0.867460       -23.6048
  24   2.0000      -0.830130       -22.5890
  25   2.0000      -0.752423       -20.4745
  26   2.0000      -0.752259       -20.4700
  27   2.0000      -0.743582       -20.2339
  28   2.0000      -0.701164       -19.0796
  29   2.0000      -0.665281       -18.1032
  30   2.0000      -0.626961       -17.0605
  31   2.0000      -0.624058       -16.9815
  32   2.0000      -0.612910       -16.6781
  33   2.0000      -0.585923       -15.9438
  34   2.0000      -0.550172       -14.9709
  35   2.0000      -0.547229       -14.8909
  36   2.0000      -0.540078       -14.6963
  37   2.0000      -0.529665       -14.4129
  38   2.0000      -0.529008       -14.3950
  39   2.0000      -0.520023       -14.1505
  40   2.0000      -0.506734       -13.7889
  41   2.0000      -0.473362       -12.8808
  42   2.0000      -0.465739       -12.6734
  43   2.0000      -0.452787       -12.3210
  44   2.0000      -0.450137       -12.2489
  45   2.0000      -0.439141       -11.9496
  46   2.0000      -0.432135       -11.7590
  47   2.0000      -0.424251       -11.5445
  48   2.0000      -0.421390       -11.4666
  49   2.0000      -0.409481       -11.1425
  50   2.0000      -0.402913       -10.9638
  51   2.0000      -0.401811       -10.9338
  52   2.0000      -0.396949       -10.8015
  53   2.0000      -0.380873       -10.3641
  54   2.0000      -0.378160       -10.2903
  55   2.0000      -0.374961       -10.2032
  56   2.0000      -0.350959        -9.5501
  57   2.0000      -0.345909        -9.4127
  58   2.0000      -0.342198        -9.3117
  59   2.0000      -0.331487        -9.0202
  60   2.0000      -0.329857        -8.9759
  61   2.0000      -0.328688        -8.9441
  62   2.0000      -0.317099        -8.6287
  63   2.0000      -0.312957        -8.5160
  64   2.0000      -0.308753        -8.4016
  65   2.0000      -0.262460        -7.1419
  66   2.0000      -0.260219        -7.0809
  67   2.0000      -0.228618        -6.2210
  68   2.0000      -0.221552        -6.0287
  69   0.0000      -0.080681        -2.1955
  70   0.0000      -0.021571        -0.5870
  71   0.0000      -0.016651        -0.4531
  72   0.0000       0.020379         0.5546
  73   0.0000       0.043814         1.1922

MULLIKEN ATOMIC CHARGES
-----------------------
   0 C :   -0.127483
   1 C :   -0.213466
   2 C :    0.087577
   3 C :   -0.215758
   4 C :   -0.128612
   5 C :   -0.147441
   6 H :    0.142963
   7 H :    0.152518
   8 H :    0.148705
   9 H :    0.144268
  10 C :    0.033679
  11 C :   -0.362079
  12 H :    0.144187
  13 H :    0.146413
  14 H :    0.129466
  15 N :    0.436943
  16 O :   -0.353917
  17 O :   -0.347016
  18 N :   -0.407960
  19 C :   -0.042742
  20 C :   -0.147808
  21 N :   -0.385436
  22 C :   -0.079452
  23 C :   -0.091330
  24 H :    0.106423
  25 H :    0.055854
  26 H :    0.107631
  27 H :    0.065719
  28 H :    0.106819
  29 H :    0.093182
  30 H :    0.067415
  31 H :    0.161173
  32 H :    0.216919
  33 H :    0.114417
  34 H :    0.214659
  35 H :    0.361104
  36 H :    0.367234
  37 O :   -0.698879
  38 H :    0.144111
Sum of atomic charges:    0.0000000

LOEWDIN ATOMIC CHARGES
----------------------
   0 C :   -0.137788
   1 C :   -0.106446
   2 C :   -0.135731
   3 C :   -0.106155
   4 C :   -0.137230
   5 C :   -0.136747
   6 H :    0.150567
   7 H :    0.152703
   8 H :    0.153816
   9 H :    0.150176
  10 C :   -0.207774
  11 C :   -0.263062
  12 H :    0.132795
  13 H :    0.129613
  14 H :    0.132761
  15 N :   -0.030580
  16 O :   -0.052168
  17 O :   -0.041453
  18 N :   -0.031549
  19 C :   -0.310314
  20 C :   -0.308112
  21 N :   -0.039592
  22 C :   -0.307049
  23 C :   -0.311419
  24 H :    0.129434
  25 H :    0.112844
  26 H :    0.128471
  27 H :    0.113403
  28 H :    0.129306
  29 H :    0.116672
  30 H :    0.115029
  31 H :    0.164596
  32 H :    0.154670
  33 H :    0.128073
  34 H :    0.168685
  35 H :    0.174403
  36 H :    0.175198
  37 O :   -0.301149
  38 H :    0.151103

  Mayer bond orders larger than 0.100000
B(  0-C ,  1-C ) :   1.4143 B(  0-C ,  5-C ) :   1.3905 B(  0-C ,  6-H ) :   0.9770
B(  1-C ,  2-C ) :   1.3697 B(  1-C ,  7-H ) :   0.9401 B(  2-C ,  3-C ) :   1.3473
B(  2-C , 10-C ) :   0.9007 B(  3-C ,  4-C ) :   1.4239 B(  3-C ,  8-H ) :   0.9561
B(  4-C ,  5-C ) :   1.3758 B(  4-C , 38-H ) :   0.9757 B(  5-C ,  9-H ) :   0.9725
B( 10-C , 11-C ) :   0.9559 B( 10-C , 15-N ) :   0.8141 B( 10-C , 31-H ) :   0.9517
B( 11-C , 12-H ) :   0.9730 B( 11-C , 13-H ) :   0.9474 B( 11-C , 14-H ) :   0.9593
B( 15-N , 16-O ) :   1.6199 B( 15-N , 17-O ) :   1.6155 B( 16-O , 17-O ) :   0.2063
B( 18-N , 19-C ) :   0.9262 B( 18-N , 23-C ) :   1.0121 B( 18-N , 32-H ) :   0.9052
B( 19-C , 20-C ) :   0.9790 B( 19-C , 30-H ) :   0.9470 B( 19-C , 33-H ) :   0.9690
B( 20-C , 21-N ) :   1.0034 B( 20-C , 28-H ) :   0.9613 B( 20-C , 29-H ) :   0.9815
B( 21-N , 22-C ) :   0.9988 B( 21-N , 34-H ) :   0.9256 B( 22-C , 23-C ) :   0.9987
B( 22-C , 26-H ) :   0.9621 B( 22-C , 27-H ) :   0.9647 B( 23-C , 24-H ) :   0.9624
B( 23-C , 25-H ) :   0.9539 B( 35-H , 37-O ) :   0.8752 B( 36-H , 37-O ) :   0.8730

Dispersion correction           -0.069343697
FINAL SINGLE POINT ENERGY      -859.674380931587
Dispersion correction            ... done

DIPOLE MOMENT
-------------
                                X             Y             Z
Electronic contribution:    -13.93995      -2.89349     -13.53995
Nuclear contribution   :     14.60300       4.60487      14.56005
                        -----------------------------------------
Total Dipole Moment    :      0.66305       1.71138       1.02010
                        -----------------------------------------
Magnitude (a.u.)       :      2.09977
Magnitude (Debye)      :      5.33720

VIBRATIONAL FREQUENCIES
-----------------------

Scaling factor for frequencies =  1.000000000 (already applied!)

   0:         0.00 cm**-1
   1:         0.00 cm**-1
   2:         0.00 cm**-1
   3:         0.00 cm**-1
   4:         0.00 cm**-1
   5:         0.00 cm**-1
   6:      -120.56 cm**-1 ***imaginary mode***
   7:       -45.65 cm**-1 ***imaginary mode***
   8:       -21.06 cm**-1 ***imaginary mode***
   9:        19.59 cm**-1
  10:        23.27 cm**-1
  11:        28.83 cm**-1
  12:        34.80 cm**-1
  13:        48.09 cm**-1
  14:        53.48 cm**-1
  15:        67.37 cm**-1
  16:        85.33 cm**-1
  17:        96.21 cm**-1
  18:       111.03 cm**-1
  19:       112.36 cm**-1
  20:       189.09 cm**-1
  21:       209.24 cm**-1
  22:       242.34 cm**-1
  23:       250.15 cm**-1
  24:       268.49 cm**-1
  25:       278.77 cm**-1
  26:       288.16 cm**-1
  27:       359.10 cm**-1
  28:       413.89 cm**-1
  29:       417.47 cm**-1
  30:       452.59 cm**-1
  31:       461.81 cm**-1
  32:       471.93 cm**-1
  33:       511.94 cm**-1
  34:       579.31 cm**-1
  35:       603.30 cm**-1
  36:       632.50 cm**-1
  37:       674.96 cm**-1
  38:       714.77 cm**-1
  39:       738.88 cm**-1
  40:       786.08 cm**-1
  41:       791.70 cm**-1
  42:       818.02 cm**-1
  43:       829.08 cm**-1
  44:       847.07 cm**-1
  45:       860.11 cm**-1
  46:       864.12 cm**-1
  47:       877.66 cm**-1
  48:       893.82 cm**-1
  49:       946.62 cm**-1
  50:       948.61 cm**-1
  51:       991.68 cm**-1
  52:      1001.96 cm**-1
  53:      1012.58 cm**-1
  54:      1023.79 cm**-1
  55:      1052.49 cm**-1
  56:      1059.00 cm**-1
  57:      1068.76 cm**-1
  58:      1084.38 cm**-1
  59:      1089.77 cm**-1
  60:      1096.50 cm**-1
  61:      1131.13 cm**-1
  62:      1134.96 cm**-1
  63:      1143.59 cm**-1
  64:      1149.81 cm**-1
  65:      1178.11 cm**-1
  66:      1202.89 cm**-1
  67:      1205.26 cm**-1
  68:      1208.33 cm**-1
  69:      1216.55 cm**-1
  70:      1289.25 cm**-1
  71:      1303.23 cm**-1
  72:      1313.97 cm**-1
  73:      1334.14 cm**-1
  74:      1339.43 cm**-1
  75:      1344.29 cm**-1
  76:      1355.03 cm**-1
  77:      1386.80 cm**-1
  78:      1398.62 cm**-1
  79:      1405.89 cm**-1
  80:      1421.69 cm**-1
  81:      1422.40 cm**-1
  82:      1470.05 cm**-1
  83:      1472.26 cm**-1
  84:      1477.00 cm**-1
  85:      1479.96 cm**-1
  86:      1484.72 cm**-1
  87:      1488.08 cm**-1
  88:      1490.79 cm**-1
  89:      1494.35 cm**-1
  90:      1523.04 cm**-1
  91:      1531.64 cm**-1
  92:      1573.10 cm**-1
  93:      1598.29 cm**-1
  94:      1624.70 cm**-1
  95:      1639.87 cm**-1
  96:      2904.71 cm**-1
  97:      2919.62 cm**-1
  98:      2923.98 cm**-1
  99:      2939.37 cm**-1
 100:      3002.75 cm**-1
 101:      3070.16 cm**-1
 102:      3072.46 cm**-1
 103:      3075.51 cm**-1
 104:      3075.72 cm**-1
 105:      3122.88 cm**-1
 106:      3166.54 cm**-1
 107:      3168.26 cm**-1
 108:      3172.33 cm**-1
 109:      3177.58 cm**-1
 110:      3180.54 cm**-1
 111:      3191.66 cm**-1
 112:      3195.39 cm**-1
 113:      3504.25 cm**-1
 114:      3508.14 cm**-1
 115:      3764.82 cm**-1
 116:      3843.41 cm**-1

IR SPECTRUM
-----------

 Mode   freq       eps      Int      T**2         TX        TY        TZ
       cm**-1   L/(mol*cm) km/mol    a.u.
----------------------------------------------------------------------------
  9:     19.59   0.000071    0.36  0.001126  ( 0.012837 -0.026654  0.015837)
 10:     23.27   0.000581    2.93  0.007788  ( 0.046106  0.072679  0.019483)
 11:     28.83   0.000051    0.26  0.000551  (-0.004705  0.011522  0.019894)
 12:     34.80   0.000540    2.73  0.004844  ( 0.034552 -0.044278  0.041102)
 13:     48.09   0.000212    1.07  0.001375  ( 0.008656  0.021963  0.028592)
 14:     53.48   0.001853    9.37  0.010816  (-0.047071  0.079148 -0.048334)
 15:     67.37   0.000400    2.02  0.001853  ( 0.031652 -0.028436  0.006497)
 16:     85.33   0.001585    8.01  0.005796  (-0.066589  0.027755 -0.024319)
 17:     96.21   0.005298   26.78  0.017185  (-0.084136  0.097209  0.025618)
 18:    111.03   0.020005  101.10  0.056226  (-0.163587  0.150952 -0.081721)
 19:    112.36   0.000601    3.04  0.001670  ( 0.003166 -0.031409  0.025953)
 20:    189.09   0.047701  241.06  0.078723  (-0.178632  0.068794 -0.205136)
 21:    209.24   0.000847    4.28  0.001263  (-0.015750  0.020675 -0.024237)
 22:    242.34   0.000754    3.81  0.000971  ( 0.013449 -0.016928  0.022448)
 23:    250.15   0.000197    1.00  0.000246  (-0.009028  0.002144 -0.012649)
 24:    268.49   0.003331   16.83  0.003871  (-0.013410  0.022053 -0.056614)
 25:    278.77   0.000415    2.10  0.000465  ( 0.000270  0.021549 -0.000299)
 26:    288.16   0.000223    1.13  0.000242  ( 0.004547 -0.011341 -0.009608)
 27:    359.10   0.000085    0.43  0.000074  ( 0.001634 -0.002654  0.007990)
 28:    413.89   0.000078    0.40  0.000059  (-0.007639  0.000805  0.000088)
 29:    417.47   0.000023    0.12  0.000017  ( 0.003409 -0.001483  0.001846)
 30:    452.59   0.001596    8.06  0.001100  ( 0.012390 -0.005132  0.030337)
 31:    461.81   0.000511    2.58  0.000345  ( 0.013828 -0.006966  0.010281)
 32:    471.93   0.000009    0.04  0.000006  (-0.001236  0.002044  0.000416)
 33:    511.94   0.002896   14.64  0.001766  ( 0.015924 -0.015553  0.035638)
 34:    579.31   0.024858  125.62  0.013390  (-0.104777  0.030711 -0.038324)
 35:    603.30   0.005936   30.00  0.003070  ( 0.014400 -0.022115 -0.048724)
 36:    632.50   0.000226    1.14  0.000111  (-0.001126 -0.003772 -0.009787)
 37:    674.96   0.004651   23.50  0.002150  (-0.013110 -0.026754 -0.035532)
 38:    714.77   0.013051   65.96  0.005698  ( 0.007452  0.004022  0.075009)
 39:    738.88   0.009451   47.76  0.003992  ( 0.001075 -0.013486 -0.061714)
 40:    786.08   0.006106   30.86  0.002424  ( 0.045721 -0.012592  0.013237)
 41:    791.70   0.002332   11.78  0.000919  (-0.005847  0.000550  0.029742)
 42:    818.02   0.060456  305.52  0.023063  ( 0.145532 -0.033564  0.027515)
 43:    829.08   0.000727    3.67  0.000274  (-0.009272  0.004860 -0.012807)
 44:    847.07   0.000039    0.20  0.000014  ( 0.002513  0.000713 -0.002762)
 45:    860.11   0.000025    0.13  0.000009  (-0.002810  0.001022 -0.000247)
 46:    864.12   0.000067    0.34  0.000024  ( 0.003691 -0.002322 -0.002253)
 47:    877.66   0.007627   38.54  0.002712  (-0.001207  0.033605  0.039762)
 48:    893.82   0.000179    0.90  0.000062  (-0.003380 -0.006020 -0.003846)
 49:    946.62   0.001549    7.83  0.000510  (-0.002842  0.002922  0.022223)
 50:    948.61   0.002635   13.32  0.000867  ( 0.027016  0.000779 -0.011680)
 51:    991.68   0.000078    0.39  0.000025  (-0.000613  0.003367  0.003577)
 52:   1001.96   0.002088   10.55  0.000650  (-0.024066 -0.000611 -0.008417)
 53:   1012.58   0.000217    1.10  0.000067  (-0.007944 -0.001037  0.001674)
 54:   1023.79   0.000171    0.86  0.000052  (-0.006803  0.001833 -0.001591)
 55:   1052.49   0.002596   13.12  0.000770  ( 0.014385 -0.023463 -0.003499)
 56:   1059.00   0.000054    0.27  0.000016  (-0.003016  0.002516  0.000689)
 57:   1068.76   0.000199    1.00  0.000058  (-0.001675  0.007106  0.002159)
 58:   1084.38   0.002586   13.07  0.000744  (-0.004693  0.026111  0.006350)
 59:   1089.77   0.008202   41.45  0.002349  (-0.046759  0.002977  0.012380)
 60:   1096.50   0.003549   17.94  0.001010  ( 0.021971  0.022478 -0.004706)
 61:   1131.13   0.003732   18.86  0.001030  ( 0.005317  0.029347  0.011832)
 62:   1134.96   0.000233    1.18  0.000064  (-0.003404 -0.005127 -0.005112)
 63:   1143.59   0.000463    2.34  0.000126  ( 0.010549  0.003758 -0.000996)
 64:   1149.81   0.017369   87.78  0.004714  (-0.012690 -0.062575 -0.025249)
 65:   1178.11   0.000019    0.09  0.000005  ( 0.001524 -0.001568  0.000379)
 66:   1202.89   0.000774    3.91  0.000201  (-0.000533 -0.013135 -0.005294)
 67:   1205.26   0.000070    0.35  0.000018  (-0.003894  0.000239  0.001682)
 68:   1208.33   0.000048    0.24  0.000012  ( 0.002242  0.002491  0.001109)
 69:   1216.55   0.002113   10.68  0.000542  (-0.013045  0.011455 -0.015509)
 70:   1289.25   0.003078   15.55  0.000745  (-0.025617 -0.002533  0.009075)
 71:   1303.23   0.003237   16.36  0.000775  ( 0.025701  0.010181  0.003295)
 72:   1313.97   0.000275    1.39  0.000065  ( 0.004893  0.006023  0.002284)
 73:   1334.14   0.001981   10.01  0.000463  ( 0.005572 -0.016772 -0.012292)
 74:   1339.43   0.020054  101.35  0.004672  ( 0.015023  0.064141  0.018233)
 75:   1344.29   0.009324   47.12  0.002164  ( 0.035440  0.021942 -0.020663)
 76:   1355.03   0.000791    4.00  0.000182  ( 0.002128 -0.002588 -0.013077)
 77:   1386.80   0.007468   37.74  0.001681  ( 0.001892  0.032408  0.025034)
 78:   1398.62   0.000874    4.42  0.000195  (-0.003949  0.012655  0.004381)
 79:   1405.89   0.000200    1.01  0.000044  ( 0.005051 -0.002360  0.003657)
 80:   1421.69   0.000090    0.45  0.000020  ( 0.003332 -0.002748 -0.001005)
 81:   1422.40   0.035023  176.99  0.007684  ( 0.031783 -0.037953 -0.072341)
 82:   1470.05   0.000403    2.03  0.000085  ( 0.007477 -0.005298 -0.001220)
 83:   1472.26   0.000108    0.54  0.000023  (-0.001637  0.003575  0.002718)
 84:   1477.00   0.001793    9.06  0.000379  ( 0.017049  0.009376 -0.000537)
 85:   1479.96   0.000652    3.30  0.000138  ( 0.007892  0.005939 -0.006321)
 86:   1484.72   0.003095   15.64  0.000651  ( 0.013388  0.013867 -0.016705)
 87:   1488.08   0.002095   10.59  0.000439  (-0.005702 -0.008222 -0.018417)
 88:   1490.79   0.001530    7.73  0.000320  (-0.013198 -0.011515 -0.003675)
 89:   1494.35   0.002480   12.53  0.000518  ( 0.012854  0.015904  0.009989)
 90:   1523.04   0.002551   12.89  0.000523  ( 0.003823  0.021548  0.006611)
 91:   1531.64   0.003855   19.48  0.000785  ( 0.025578 -0.011414 -0.000965)
 92:   1573.10   0.117742  595.02  0.023357  ( 0.104857  0.086655 -0.069663)
 93:   1598.29   0.022087  111.62  0.004312  ( 0.046722  0.036675 -0.028007)
 94:   1624.70   0.000004    0.02  0.000001  ( 0.000629  0.000328 -0.000435)
 95:   1639.87   0.000067    0.34  0.000013  ( 0.001952 -0.002883  0.000848)
 96:   2904.71   0.020590  104.05  0.002212  (-0.036475 -0.029693  0.000093)
 97:   2919.62   0.047271  238.89  0.005053  ( 0.061621 -0.018261 -0.030365)
 98:   2923.98   0.029243  147.78  0.003121  (-0.050541 -0.022577  0.007540)
 99:   2939.37   0.040806  206.22  0.004332  (-0.058277  0.011434  0.028379)
100:   3002.75   0.005127   25.91  0.000533  (-0.013261  0.017222 -0.007767)
101:   3070.16   0.008753   44.23  0.000890  ( 0.024339 -0.015725  0.007073)
102:   3072.46   0.024822  125.44  0.002521  (-0.008987  0.048242  0.010630)
103:   3075.51   0.007605   38.43  0.000772  ( 0.019041  0.014481  0.014122)
104:   3075.72   0.001621    8.19  0.000164  ( 0.008462  0.005798  0.007696)
105:   3122.88   0.002870   14.50  0.000287  ( 0.014567 -0.003593 -0.007853)
106:   3166.54   0.000199    1.00  0.000020  ( 0.003811  0.002213  0.000406)
107:   3168.26   0.011675   59.00  0.001150  (-0.018067 -0.020592 -0.019988)
108:   3172.33   0.001153    5.83  0.000113  (-0.008119 -0.006346  0.002696)
109:   3177.58   0.001180    5.96  0.000116  (-0.007337 -0.006440 -0.004536)
110:   3180.54   0.001927    9.74  0.000189  ( 0.013520 -0.002512 -0.000051)
111:   3191.66   0.004205   21.25  0.000411  ( 0.000399 -0.020221  0.001455)
112:   3195.39   0.000984    4.97  0.000096  ( 0.009330 -0.002671 -0.001377)
113:   3504.25   0.000440    2.22  0.000039  ( 0.001149  0.002345 -0.005691)
114:   3508.14   0.033990  171.77  0.003024  (-0.009412  0.021263 -0.049828)
115:   3764.82   0.006987   35.31  0.000579  ( 0.016067  0.013851 -0.011365)
116:   3843.41   0.023819  120.37  0.001934  ( 0.007807 -0.032065 -0.029067)

--------------------------
THERMOCHEMISTRY AT 298.15K
--------------------------

Temperature         ... 298.15 K
Pressure            ... 1.00 atm
Total Mass          ... 255.32 AMU

Throughout the following assumptions are being made:
  (1) The electronic state is orbitally nondegenerate
  (2) There are no thermally accessible electronically excited states
  (3) Hindered rotations indicated by low frequency modes are not
      treated as such but are treated as vibrations and this may
      cause some error
  (4) All equations used are the standard statistical mechanics
      equations for an ideal gas
  (5) All vibrations are strictly harmonic

freq.      19.59  E(vib)   ...       0.56
freq.      23.27  E(vib)   ...       0.56
freq.      28.83  E(vib)   ...       0.55
freq.      34.80  E(vib)   ...       0.54
freq.      48.09  E(vib)   ...       0.53
freq.      53.48  E(vib)   ...       0.52
freq.      67.37  E(vib)   ...       0.50
freq.      85.33  E(vib)   ...       0.48
freq.      96.21  E(vib)   ...       0.47
freq.     111.03  E(vib)   ...       0.45
freq.     112.36  E(vib)   ...       0.45
freq.     189.09  E(vib)   ...       0.36
freq.     209.24  E(vib)   ...       0.34
freq.     242.34  E(vib)   ...       0.31
freq.     250.15  E(vib)   ...       0.31
freq.     268.49  E(vib)   ...       0.29
freq.     278.77  E(vib)   ...       0.28
freq.     288.16  E(vib)   ...       0.27
freq.     359.10  E(vib)   ...       0.22
freq.     413.89  E(vib)   ...       0.19
freq.     417.47  E(vib)   ...       0.18
freq.     452.59  E(vib)   ...       0.16
freq.     461.81  E(vib)   ...       0.16
freq.     471.93  E(vib)   ...       0.15
freq.     511.94  E(vib)   ...       0.14
freq.     579.31  E(vib)   ...       0.11
freq.     603.30  E(vib)   ...       0.10
freq.     632.50  E(vib)   ...       0.09
freq.     674.96  E(vib)   ...       0.08
freq.     714.77  E(vib)   ...       0.07
freq.     738.88  E(vib)   ...       0.06
freq.     786.08  E(vib)   ...       0.05
freq.     791.70  E(vib)   ...       0.05
freq.     818.02  E(vib)   ...       0.05
freq.     829.08  E(vib)   ...       0.04
freq.     847.07  E(vib)   ...       0.04
freq.     860.11  E(vib)   ...       0.04
freq.     864.12  E(vib)   ...       0.04
freq.     877.66  E(vib)   ...       0.04
freq.     893.82  E(vib)   ...       0.03
freq.     946.62  E(vib)   ...       0.03
freq.     948.61  E(vib)   ...       0.03
freq.     991.68  E(vib)   ...       0.02
freq.    1001.96  E(vib)   ...       0.02
freq.    1012.58  E(vib)   ...       0.02
freq.    1023.79  E(vib)   ...       0.02
freq.    1052.49  E(vib)   ...       0.02
freq.    1059.00  E(vib)   ...       0.02
freq.    1068.76  E(vib)   ...       0.02
freq.    1084.38  E(vib)   ...       0.02
freq.    1089.77  E(vib)   ...       0.02
freq.    1096.50  E(vib)   ...       0.02
freq.    1131.13  E(vib)   ...       0.01
freq.    1134.96  E(vib)   ...       0.01
freq.    1143.59  E(vib)   ...       0.01
freq.    1149.81  E(vib)   ...       0.01
freq.    1178.11  E(vib)   ...       0.01
freq.    1202.89  E(vib)   ...       0.01
freq.    1205.26  E(vib)   ...       0.01
freq.    1208.33  E(vib)   ...       0.01
freq.    1216.55  E(vib)   ...       0.01
freq.    1289.25  E(vib)   ...       0.01
freq.    1303.23  E(vib)   ...       0.01
freq.    1313.97  E(vib)   ...       0.01
freq.    1334.14  E(vib)   ...       0.01
freq.    1339.43  E(vib)   ...       0.01
freq.    1344.29  E(vib)   ...       0.01
freq.    1355.03  E(vib)   ...       0.01
freq.    1386.80  E(vib)   ...       0.00
freq.    1398.62  E(vib)   ...       0.00
freq.    1405.89  E(vib)   ...       0.00
freq.    1421.69  E(vib)   ...       0.00
freq.    1422.40  E(vib)   ...       0.00
freq.    1470.05  E(vib)   ...       0.00
freq.    1472.26  E(vib)   ...       0.00
freq.    1477.00  E(vib)   ...       0.00
freq.    1479.96  E(vib)   ...       0.00
freq.    1484.72  E(vib)   ...       0.00
freq.    1488.08  E(vib)   ...       0.00
freq.    1490.79  E(vib)   ...       0.00
freq.    1494.35  E(vib)   ...       0.00
freq.    1523.04  E(vib)   ...       0.00
freq.    1531.64  E(vib)   ...       0.00
freq.    1573.10  E(vib)   ...       0.00
freq.    1598.29  E(vib)   ...       0.00
freq.    1624.70  E(vib)   ...       0.00
freq.    1639.87  E(vib)   ...       0.00
freq.    2904.71  E(vib)   ...       0.00
freq.    2919.62  E(vib)   ...       0.00
freq.    2923.98  E(vib)   ...       0.00
freq.    2939.37  E(vib)   ...       0.00
freq.    3002.75  E(vib)   ...       0.00
freq.    3070.16  E(vib)   ...       0.00
freq.    3072.46  E(vib)   ...       0.00
freq.    3075.51  E(vib)   ...       0.00
freq.    3075.72  E(vib)   ...       0.00
freq.    3122.88  E(vib)   ...       0.00
freq.    3166.54  E(vib)   ...       0.00
freq.    3168.26  E(vib)   ...       0.00
freq.    3172.33  E(vib)   ...       0.00
freq.    3177.58  E(vib)   ...       0.00
freq.    3180.54  E(vib)   ...       0.00
freq.    3191.66  E(vib)   ...       0.00
freq.    3195.39  E(vib)   ...       0.00
freq.    3504.25  E(vib)   ...       0.00
freq.    3508.14  E(vib)   ...       0.00
freq.    3764.82  E(vib)   ...       0.00
freq.    3843.41  E(vib)   ...       0.00

------------
INNER ENERGY
------------

The inner energy is: U= E(el) + E(ZPE) + E(vib) + E(rot) + E(trans)
    E(el)   - is the total energy from the electronic structure calculation
              = E(kin-el) + E(nuc-el) + E(el-el) + E(nuc-nuc)
    E(ZPE)  - the the zero temperature vibrational energy from the frequency calculation
    E(vib)  - the the finite temperature correction to E(ZPE) due to population
              of excited vibrational states
    E(rot)  - is the rotational thermal energy
    E(trans)- is the translational thermal energy

Summary of contributions to the inner energy U:
Electronic energy                ...   -859.67438094 Eh
Zero point energy                ...      0.32941416 Eh     206.71 kcal/mol
Thermal vibrational correction   ...      0.01645432 Eh      10.33 kcal/mol
Thermal rotational correction    ...      0.00141627 Eh       0.89 kcal/mol
Thermal translational correction ...      0.00141627 Eh       0.89 kcal/mol
-----------------------------------------------------------------------
Total thermal energy                   -859.32567991 Eh

Summary of corrections to the electronic energy:
(perhaps to be used in another calculation)
Total thermal correction                  0.01928686 Eh      12.10 kcal/mol
Non-thermal (ZPE) correction              0.32941416 Eh     206.71 kcal/mol
-----------------------------------------------------------------------
Total correction                          0.34870102 Eh     218.81 kcal/mol

--------
ENTHALPY
--------

Rotational constants in cm-1:     0.017476     0.006925     0.006352

                             ****ORCA TERMINATED NORMALLY****
TOTAL RUN TIME: 0 days 1 hours 14 minutes 33 seconds 503 msec
