                         Program Version 5.0.0 -  RELEASE  -
|  1> ! NEB-TS b3lyp D3 def2-TZVP CPCM
|  2>
|  3> %pal
|  4> nprocs 18
|  5> end
|  6>
|  7> %cpcm
|  8> epsilon 78.0
|  9> end
| 10>
| 11> %neb
| 12> NEB_End_XYZFile "end.xyz"
| 13> Nimages 6
| 14> end
| 15>
| 16>
| 17> *XYZfile 0 1 start.xyz
| 18>
| 19>                          ****END OF INPUT****
 Total Charge           Charge          ....    0
 Multiplicity           Mult            ....    1
 Number of Electrons    NEL             ....   42
Dispersion correction           -0.007726522
FINAL SINGLE POINT ENERGY      -321.457219835358
Dispersion correction            ... done
Dispersion correction           -0.007716037
FINAL SINGLE POINT ENERGY      -321.457234122999
Dispersion correction            ... done
Dispersion correction           -0.007698841
FINAL SINGLE POINT ENERGY      -321.457246695631
Dispersion correction            ... done
FINAL SINGLE POINT ENERGY      -321.457246605059
FINAL SINGLE POINT ENERGY      -321.457256854111
FINAL SINGLE POINT ENERGY      -321.457257041871
FINAL SINGLE POINT ENERGY      -321.457239424894
FINAL SINGLE POINT ENERGY      -321.457259265278
FINAL SINGLE POINT ENERGY      -321.457260994408
FINAL SINGLE POINT ENERGY      -321.457259886235
FINAL SINGLE POINT ENERGY      -321.457259252258
FINAL SINGLE POINT ENERGY      -321.457263198917
Dispersion correction            ... done
Dispersion correction           -0.007616624
FINAL SINGLE POINT ENERGY      -321.457264481479
Dispersion correction            ... done

CARTESIAN COORDINATES (ANGSTROEM)
---------------------------------
  C     -0.530863    0.125550   -0.297614
  H     -0.446117   -0.518231   -1.165427
  H     -0.227195    1.144542   -0.533844
  H      0.029978   -0.244703    0.553904
  N     -1.968692    0.197888    0.093512
  O     -2.228796    0.595759    1.218456
  O     -2.809439   -0.118805   -0.733022
  H      2.892984   -0.721002   -0.409753
  O      2.696152   -0.699417    0.535154
  H      2.591987    0.238420    0.738634

Dispersion correction           -0.007633699
FINAL SINGLE POINT ENERGY      -321.457263939915
Dispersion correction            ... done
                    ***********************HURRAY********************
 Multiplicity           Mult            ....    1
 Number of Electrons    NEL             ....   42
 Basis Dimension        Dim             ....  185

ORBITAL ENERGIES
----------------

  NO   OCC          E(Eh)            E(eV)
   0   2.0000     -19.171270      -521.6768
   1   2.0000     -19.170170      -521.6469
   2   2.0000     -19.124056      -520.3920
   3   2.0000     -14.558814      -396.1655
   4   2.0000     -10.219332      -278.0822
   5   2.0000      -1.242738       -33.8166
   6   2.0000      -1.068745       -29.0820
   7   2.0000      -1.007793       -27.4235
   8   2.0000      -0.812579       -22.1114
   9   2.0000      -0.624243       -16.9865
  10   2.0000      -0.555279       -15.1099
  11   2.0000      -0.544315       -14.8116
  12   2.0000      -0.534035       -14.5318
  13   2.0000      -0.525237       -14.2924
  14   2.0000      -0.438510       -11.9325
  15   2.0000      -0.421138       -11.4597
  16   2.0000      -0.392492       -10.6802
  17   2.0000      -0.331919        -9.0320
  18   2.0000      -0.325704        -8.8629
  19   2.0000      -0.315459        -8.5841
  20   2.0000      -0.308530        -8.3955
  21   0.0000      -0.081178        -2.2090
  22   0.0000       0.026266         0.7147
  23   0.0000       0.068346         1.8598
  24   0.0000       0.101645         2.7659
  25   0.0000       0.112352         3.0573

-------
TIMINGS
-------

Dispersion correction           -0.007632381
FINAL SINGLE POINT ENERGY      -321.457263824695
                    ***********************HURRAY************************

DIPOLE MOMENT
-------------
                                X             Y             Z
Electronic contribution:     -6.65120       0.77173       0.49336
Nuclear contribution   :      8.48801      -0.13776      -1.53463
                        -----------------------------------------
Total Dipole Moment    :      1.83681       0.63396      -1.04127
                        -----------------------------------------
Magnitude (a.u.)       :      2.20454
Magnitude (Debye)      :      5.60351

Rotational constants in cm-1:     0.375005     0.047571     0.043180
Rotational constants in MHz : 11242.352604  1426.156839  1294.516908

                             ****ORCA TERMINATED NORMALLY****
TOTAL RUN TIME: 0 days 0 hours 8 minutes 39 seconds 939 msec
