                         Program Version 5.0.4 -  RELEASE  -
|  1> !  opt B3LYP def2-TZVP CPCM D3
|  2> %pal nprocs 102 end
|  3> %cpcm epsilon 78.4 end
|  4> *xyz -1 1
|  5> C   1.53294806 3.05141345 2.07784035
|  6> C   1.8023646 1.68969567 1.94998079
|  7> C   0.75782023 0.77265465 1.79834053
|  8> C   -0.56823832 1.22328531 1.77831582
|  9> C   -0.79617942 2.58311794 1.90809381
| 10> C   0.21810675 3.51654902 2.05690623
| 11> H   2.35425617 3.76060968 2.19415376
| 12> H   2.83590921 1.34050465 1.96760519
| 13> H   -1.38550159 0.50943852 1.66378656
| 14> Cl   -2.42857257 3.13562851 1.87825265
| 15> H   0.00782424 4.58107068 2.15540724
| 16> C   1.01156293 -0.6636513 1.68661982
| 17> C   0.96472228 -1.46583294 2.94050007
| 18> H   1.44086784 -2.45143956 2.82865646
| 19> H   -0.07367836 -1.64694893 3.259813
| 20> H   1.46988406 -0.95128397 3.77097647
| 21> N   1.10365386 -1.24253076 0.49481257
| 22> O   1.21479176 -2.49461492 0.36464328
| 23> O   1.12339942 -0.55785462 -0.56863135
| 24> H   3.17941788 -0.79652388 1.83883217
| 25> O   6.53148993 -0.82637275 3.06833312
| 26> H   7.07078269 -0.40518593 2.3891896
| 27> H   5.64231855 -0.82622166 2.69761765
| 28> H   4.34633109 -1.4039717 1.07240915
| 29> O   4.1510296 -0.80618134 1.80680309
| 30> *
| 31>
| 32>                          ****END OF INPUT****
 Total Charge           Charge          ....   -1
 Multiplicity           Mult            ....    1
 Number of Electrons    NEL             ....  116
 Basis Dimension        Dim             ....  506

ORBITAL ENERGIES
----------------

  NO   OCC          E(Eh)            E(eV)
   0   2.0000    -101.523627     -2762.5983
   1   2.0000     -19.132137      -520.6119
   2   2.0000     -19.101764      -519.7854
   3   2.0000     -19.071779      -518.9695
   4   2.0000     -19.070384      -518.9315
   5   2.0000     -14.468438      -393.7062
   6   2.0000     -10.230223      -278.3785
   7   2.0000     -10.185124      -277.1513
   8   2.0000     -10.180154      -277.0161
   9   2.0000     -10.178840      -276.9803
  10   2.0000     -10.178334      -276.9665
  11   2.0000     -10.171811      -276.7890
  12   2.0000     -10.170682      -276.7583
  13   2.0000     -10.156812      -276.3809
  14   2.0000      -9.456472      -257.3237
  15   2.0000      -7.217574      -196.4002
  16   2.0000      -7.209713      -196.1863
  17   2.0000      -7.209350      -196.1764
  18   2.0000      -1.142016       -31.0758
  19   2.0000      -1.018905       -27.7258
  20   2.0000      -0.989381       -26.9224
  21   2.0000      -0.955420       -25.9983
  22   2.0000      -0.895774       -24.3753
  23   2.0000      -0.845716       -23.0131
  24   2.0000      -0.808277       -21.9943
  25   2.0000      -0.746597       -20.3159
  26   2.0000      -0.727533       -19.7972
  27   2.0000      -0.690189       -18.7810
  28   2.0000      -0.621090       -16.9007
  29   2.0000      -0.601014       -16.3544
  30   2.0000      -0.541208       -14.7270
  31   2.0000      -0.529967       -14.4211
  32   2.0000      -0.512569       -13.9477
  33   2.0000      -0.506300       -13.7771
  34   2.0000      -0.484390       -13.1809
  35   2.0000      -0.481256       -13.0956
  36   2.0000      -0.461736       -12.5645
  37   2.0000      -0.459149       -12.4941
  38   2.0000      -0.444149       -12.0859
  39   2.0000      -0.427018       -11.6197
  40   2.0000      -0.415855       -11.3160
  41   2.0000      -0.403636       -10.9835
  42   2.0000      -0.394546       -10.7361
  43   2.0000      -0.393586       -10.7100
  44   2.0000      -0.382721       -10.4144
  45   2.0000      -0.365085        -9.9345
  46   2.0000      -0.357697        -9.7334
  47   2.0000      -0.350025        -9.5247
  48   2.0000      -0.332517        -9.0482
  49   2.0000      -0.325247        -8.8504
  50   2.0000      -0.314199        -8.5498
  51   2.0000      -0.300995        -8.1905
  52   2.0000      -0.269627        -7.3369
  53   2.0000      -0.261530        -7.1166
  54   2.0000      -0.253594        -6.9006
  55   2.0000      -0.245963        -6.6930
  56   2.0000      -0.221018        -6.0142
  57   2.0000      -0.183762        -5.0004
  58   0.0000      -0.019652        -0.5348
  59   0.0000      -0.016889        -0.4596
  60   0.0000       0.010058         0.2737
  61   0.0000       0.035177         0.9572
  62   0.0000       0.036614         0.9963

MULLIKEN ATOMIC CHARGES
-----------------------
   0 C :   -0.143541
   1 C :   -0.188911
   2 C :    0.217726
   3 C :   -0.349462
   4 C :    0.234804
   5 C :   -0.224737
   6 H :    0.143564
   7 H :    0.139405
   8 H :    0.143641
   9 Cl:   -0.146971
  10 H :    0.146331
  11 C :   -0.201924
  12 C :   -0.347625
  13 H :    0.116659
  14 H :    0.117724
  15 H :    0.129761
  16 N :    0.400044
  17 O :   -0.591648
  18 O :   -0.602672
  19 H :    0.365515
  20 O :   -0.743732
  21 H :    0.346223
  22 H :    0.364833
  23 H :    0.362212
  24 O :   -0.687217
Sum of atomic charges:   -1.0000000

LOEWDIN ATOMIC CHARGES
----------------------
   0 C :   -0.135181
   1 C :   -0.111707
   2 C :   -0.134565
   3 C :   -0.109038
   4 C :   -0.446684
   5 C :   -0.154290
   6 H :    0.152965
   7 H :    0.151026
   8 H :    0.159211
   9 Cl:    0.380205
  10 H :    0.153739
  11 C :   -0.306092
  12 C :   -0.300155
  13 H :    0.125158
  14 H :    0.124586
  15 H :    0.130023
  16 N :   -0.078141
  17 O :   -0.292890
  18 O :   -0.294369
  19 H :    0.158260
  20 O :   -0.361308
  21 H :    0.164723
  22 H :    0.126098
  23 H :    0.178558
  24 O :   -0.280133

  Mayer bond orders larger than 0.100000
B(  0-C ,  1-C ) :   1.4160 B(  0-C ,  5-C ) :   1.3808 B(  0-C ,  6-H ) :   0.9728
B(  1-C ,  2-C ) :   1.3088 B(  1-C ,  7-H ) :   0.9529 B(  2-C ,  3-C ) :   1.3404
B(  2-C , 11-C ) :   0.9804 B(  3-C ,  4-C ) :   1.3617 B(  3-C ,  8-H ) :   0.9852
B(  4-C ,  5-C ) :   1.3409 B(  4-C ,  9-Cl) :   0.8942 B(  5-C , 10-H ) :   0.9762
B( 11-C , 12-C ) :   0.9708 B( 11-C , 16-N ) :   1.4750 B( 11-C , 17-O ) :   0.1566
B( 12-C , 13-H ) :   0.9622 B( 12-C , 14-H ) :   0.9592 B( 12-C , 15-H ) :   0.9704
B( 16-N , 17-O ) :   1.3367 B( 16-N , 18-O ) :   1.3836 B( 19-H , 24-O ) :   0.8395
B( 20-O , 21-H ) :   0.8904 B( 20-O , 22-H ) :   0.8365 B( 23-H , 24-O ) :   0.8713

Dispersion correction           -0.046332173
FINAL SINGLE POINT ENERGY     -1127.298976734450
Dispersion correction            ... done
Dispersion correction           -0.046077232
FINAL SINGLE POINT ENERGY     -1127.303273817625
Dispersion correction            ... done
Dispersion correction           -0.045971990
FINAL SINGLE POINT ENERGY     -1127.303920130749
Dispersion correction            ... done
FINAL SINGLE POINT ENERGY     -1127.304122769552
FINAL SINGLE POINT ENERGY     -1127.304269161580
FINAL SINGLE POINT ENERGY     -1127.304406906839
FINAL SINGLE POINT ENERGY     -1127.304561112742
FINAL SINGLE POINT ENERGY     -1127.304744041920
FINAL SINGLE POINT ENERGY     -1127.304946728528
FINAL SINGLE POINT ENERGY     -1127.305131915458
FINAL SINGLE POINT ENERGY     -1127.313722149503
FINAL SINGLE POINT ENERGY     -1127.313840719493
FINAL SINGLE POINT ENERGY     -1127.313993672127
FINAL SINGLE POINT ENERGY     -1127.314147359088
FINAL SINGLE POINT ENERGY     -1127.314353757506
FINAL SINGLE POINT ENERGY     -1127.314585777880
FINAL SINGLE POINT ENERGY     -1127.314801785188
Dispersion correction           -0.049173604
FINAL SINGLE POINT ENERGY     -1127.314938763923
Dispersion correction            ... done
Dispersion correction           -0.048541859
FINAL SINGLE POINT ENERGY     -1127.314749832535
Dispersion correction            ... done

CARTESIAN COORDINATES (ANGSTROEM)
---------------------------------
  C      1.334151    2.976889    0.944776
  C      1.397946    1.637840    0.591356
  C      1.087239    0.617163    1.518676
  C      0.695838    1.038179    2.811022
  C      0.641543    2.381760    3.132064
  C      0.956476    3.379789    2.222598
  H      1.591658    3.729633    0.209469
  H      1.694629    1.353740   -0.402881
  H      0.415977    0.317328    3.562725
  Cl     0.147599    2.835186    4.760107
  H      0.910444    4.423426    2.498983
  C      1.186897   -0.813641    1.259197
  C      1.163313   -1.810627    2.382229
  H      1.833848   -2.638431    2.162939
  H      0.166538   -2.240347    2.536858
  H      1.483009   -1.357628    3.316981
  N      1.178009   -1.337705    0.013601
  O      1.163151   -2.611390   -0.129627
  O      1.173071   -0.614065   -1.044360
  H      3.377389   -0.419540    1.310801
  O      3.851620   -0.079616    4.433247
  H      2.995114    0.360803    4.494436
  H      4.010007   -0.169240    3.472331
  H      4.770549   -1.063497    1.382628
  O      4.281296   -0.270655    1.639101

Dispersion correction           -0.048937956
FINAL SINGLE POINT ENERGY     -1127.315008739594
Dispersion correction            ... done

DIPOLE MOMENT
-------------
                                X             Y             Z
Electronic contribution:     -7.43339       9.28652       4.69628
Nuclear contribution   :      8.67310      -7.34502      -1.81845
                        -----------------------------------------
Total Dipole Moment    :      1.23971       1.94151       2.87783
                        -----------------------------------------
Magnitude (a.u.)       :      3.68622
Magnitude (Debye)      :      9.36964

Rotational constants in cm-1:     0.025600     0.011850     0.010382
Rotational constants in MHz :   767.482032   355.239740   311.236328

                             ****ORCA TERMINATED NORMALLY****
TOTAL RUN TIME: 0 days 1 hours 5 minutes 12 seconds 888 msec
