                         Program Version 5.0.4 -  RELEASE  -
|  1> !  NUMFREQ B3LYP def2-TZVP CPCM D3
|  2> %pal nprocs 102 end
|  3> %cpcm epsilon 78.4 end
|  4> *xyz -1 1
|  5> C   0.74816626743471 -1.38588318907674 1.59328564605549
|  6> H   1.39789797136856 -1.47273734124552 0.72838648092626 M = 2
|  7> H   0.95564188327355 -0.46404791948582 2.13564808314259
|  8> H   0.8078083776349 -2.24584288452927 2.25167951293382
|  9> N   -0.65795523078564 -1.27382636985729 1.10696612614734
| 10> O   -1.54417562277645 -1.75892713981927 1.78781128693849
| 11> O   -0.85590243531584 -0.67260467291854 0.05923140509838
| 12> C   0.14147686584681 2.80110437006251 -3.92139197298764
| 13> O   0.29775517849708 2.5712716237003 -2.68265085000067
| 14> O   0.59411494917581 2.10067926364336 -4.8549091857159
| 15> C   -0.67839433934381 4.04607146878757 -4.26713071456473
| 16> H   -0.70261364558749 4.22712999003463 -5.3404173624663
| 17> H   -0.25868295870813 4.91779225874295 -3.76098148236593
| 18> H   -1.70124260094266 3.92080156162459 -3.90209569837155
| 19> H   0.9770223111547 1.08676324984816 -2.21603738656194
| 20> O   1.32393033828143 0.21579023294388 -1.88114820405834
| 21> H   0.64589400079248 -0.10573260245554 -1.27169508414929
| 22> *
| 23>
| 24>                          ****END OF INPUT****

CARTESIAN COORDINATES (ANGSTROEM)
---------------------------------
  C      0.748166   -1.385883    1.593286
  H      1.397898   -1.472737    0.728386
  H      0.955642   -0.464048    2.135648
  H      0.807808   -2.245843    2.251680
  N     -0.657955   -1.273826    1.106966
  O     -1.544176   -1.758927    1.787811
  O     -0.855902   -0.672605    0.059231
  C      0.141477    2.801104   -3.921392
  O      0.297755    2.571272   -2.682651
  O      0.594115    2.100679   -4.854909
  C     -0.678394    4.046071   -4.267131
  H     -0.702614    4.227130   -5.340417
  H     -0.258683    4.917792   -3.760981
  H     -1.701243    3.920802   -3.902096
  H      0.977022    1.086763   -2.216037
  O      1.323930    0.215790   -1.881148
  H      0.645894   -0.105733   -1.271695

 Total Charge           Charge          ....   -1
 Multiplicity           Mult            ....    1
 Number of Electrons    NEL             ....   74
 Basis Dimension        Dim             ....  327

ORBITAL ENERGIES
----------------

  NO   OCC          E(Eh)            E(eV)
   0   2.0000     -19.175795      -521.7999
   1   2.0000     -19.175730      -521.7981
   2   2.0000     -19.084423      -519.3136
   3   2.0000     -19.059111      -518.6248
   4   2.0000     -19.055848      -518.5360
   5   2.0000     -14.563213      -396.2852
   6   2.0000     -10.246754      -278.8283
   7   2.0000     -10.222667      -278.1729
   8   2.0000     -10.145113      -276.0626
   9   2.0000      -1.247268       -33.9399
  10   2.0000      -1.073070       -29.1997
  11   2.0000      -1.017337       -27.6832
  12   2.0000      -0.967323       -26.3222
  13   2.0000      -0.926735       -25.2177
  14   2.0000      -0.816231       -22.2108
  15   2.0000      -0.703361       -19.1394
  16   2.0000      -0.628861       -17.1122
  17   2.0000      -0.558962       -15.2101
  18   2.0000      -0.550060       -14.9679
  19   2.0000      -0.538976       -14.6663
  20   2.0000      -0.508189       -13.8285
  21   2.0000      -0.477154       -12.9840
  22   2.0000      -0.440349       -11.9825
  23   2.0000      -0.423525       -11.5247
  24   2.0000      -0.423027       -11.5111
  25   2.0000      -0.421781       -11.4772
  26   2.0000      -0.417887       -11.3713
  27   2.0000      -0.375566       -10.2197
  28   2.0000      -0.356811        -9.7093
  29   2.0000      -0.346540        -9.4298
  30   2.0000      -0.336238        -9.1495
  31   2.0000      -0.328983        -8.9521
  32   2.0000      -0.312906        -8.5146
  33   2.0000      -0.286111        -7.7855
  34   2.0000      -0.251442        -6.8421
  35   2.0000      -0.240108        -6.5337
  36   2.0000      -0.229599        -6.2477
  37   0.0000      -0.085430        -2.3247
  38   0.0000       0.050807         1.3825
  39   0.0000       0.057042         1.5522
  40   0.0000       0.062136         1.6908
  41   0.0000       0.087629         2.3845

MULLIKEN ATOMIC CHARGES
-----------------------
   0 C :   -0.267744
   1 H :    0.173446
   2 H :    0.187190
   3 H :    0.171893
   4 N :    0.447407
   5 O :   -0.337041
   6 O :   -0.364423
   7 C :    0.320579
   8 O :   -0.620517
   9 O :   -0.580145
  10 C :   -0.356199
  11 H :    0.098028
  12 H :    0.114629
  13 H :    0.117156
  14 H :    0.333501
  15 O :   -0.767973
  16 H :    0.330215
Sum of atomic charges:   -1.0000000

LOEWDIN ATOMIC CHARGES
----------------------
   0 C :   -0.226726
   1 H :    0.134974
   2 H :    0.147261
   3 H :    0.135207
   4 N :   -0.061378
   5 O :   -0.045540
   6 O :   -0.058821
   7 C :   -0.679276
   8 O :   -0.130478
   9 O :   -0.131024
  10 C :   -0.302950
  11 H :    0.113457
  12 H :    0.123674
  13 H :    0.126024
  14 H :    0.127532
  15 O :   -0.405041
  16 H :    0.133106

  Mayer bond orders larger than 0.100000
B(  0-C ,  1-H ) :   0.9479 B(  0-C ,  2-H ) :   0.9338 B(  0-C ,  3-H ) :   0.9502
B(  0-C ,  4-N ) :   0.8829 B(  4-N ,  5-O ) :   1.6207 B(  4-N ,  6-O ) :   1.5582
B(  5-O ,  6-O ) :   0.2146 B(  7-C ,  8-O ) :   1.5932 B(  7-C ,  9-O ) :   1.8016
B(  7-C , 10-C ) :   0.9500 B(  8-O , 14-H ) :   0.1759 B( 10-C , 11-H ) :   0.9777
B( 10-C , 12-H ) :   0.9590 B( 10-C , 13-H ) :   0.9558 B( 14-H , 15-O ) :   0.7772
B( 15-O , 16-H ) :   0.8789

Dispersion correction           -0.016213469
FINAL SINGLE POINT ENERGY      -550.090016865636
Dispersion correction            ... done

DIPOLE MOMENT
-------------
                                X             Y             Z
Electronic contribution:     -1.58267      -8.10111       7.04000
Nuclear contribution   :      0.96680       6.09640      -2.11105
                        -----------------------------------------
Total Dipole Moment    :     -0.61587      -2.00471       4.92895
                        -----------------------------------------
Magnitude (a.u.)       :      5.35656
Magnitude (Debye)      :     13.61528

VIBRATIONAL FREQUENCIES
-----------------------

Scaling factor for frequencies =  1.000000000 (already applied!)

   0:         0.00 cm**-1
   1:         0.00 cm**-1
   2:         0.00 cm**-1
   3:         0.00 cm**-1
   4:         0.00 cm**-1
   5:         0.00 cm**-1
   6:       -21.69 cm**-1 ***imaginary mode***
   7:         8.79 cm**-1
   8:        16.48 cm**-1
   9:        20.10 cm**-1
  10:        34.70 cm**-1
  11:        43.24 cm**-1
  12:        51.65 cm**-1
  13:        57.20 cm**-1
  14:        70.55 cm**-1
  15:       116.87 cm**-1
  16:       218.57 cm**-1
  17:       340.46 cm**-1
  18:       465.36 cm**-1
  19:       466.61 cm**-1
  20:       544.90 cm**-1
  21:       607.42 cm**-1
  22:       622.58 cm**-1
  23:       640.20 cm**-1
  24:       650.00 cm**-1
  25:       815.72 cm**-1
  26:       914.87 cm**-1
  27:       915.62 cm**-1
  28:       966.25 cm**-1
  29:      1021.38 cm**-1
  30:      1055.10 cm**-1
  31:      1079.10 cm**-1
  32:      1281.02 cm**-1
  33:      1318.98 cm**-1
  34:      1351.84 cm**-1
  35:      1394.26 cm**-1
  36:      1416.00 cm**-1
  37:      1442.62 cm**-1
  38:      1449.70 cm**-1
  39:      1465.19 cm**-1
  40:      1558.74 cm**-1
  41:      1577.95 cm**-1
  42:      1649.28 cm**-1
  43:      2323.73 cm**-1
  44:      3029.88 cm**-1
  45:      3086.52 cm**-1
  46:      3104.91 cm**-1
  47:      3117.79 cm**-1
  48:      3166.09 cm**-1
  49:      3183.64 cm**-1
  50:      3751.56 cm**-1

IR SPECTRUM
-----------

 Mode   freq       eps      Int      T**2         TX        TY        TZ
       cm**-1   L/(mol*cm) km/mol    a.u.
----------------------------------------------------------------------------
  7:      8.79   0.000058    0.29  0.002044  ( 0.037168 -0.000231 -0.025746)
  8:     16.48   0.002368   11.97  0.044850  (-0.032451 -0.183556  0.100519)
  9:     20.10   0.001064    5.38  0.016511  ( 0.098634  0.082154 -0.005729)
 10:     34.70   0.000743    3.76  0.006685  (-0.046116  0.066741 -0.010193)
 11:     43.24   0.001350    6.82  0.009746  ( 0.077726  0.060230  0.008783)
 12:     51.65   0.000239    1.21  0.001446  ( 0.021255 -0.005123  0.031115)
 13:     57.20   0.001899    9.60  0.010362  (-0.023347  0.000058  0.099082)
 14:     70.55   0.000351    1.77  0.001550  (-0.012060  0.024228 -0.028601)
 15:    116.87   0.002170   10.97  0.005795  ( 0.000598  0.004836 -0.075967)
 16:    218.57   0.004726   23.88  0.006748  (-0.021741  0.074446 -0.027076)
 17:    340.46   0.032898  166.26  0.030155  ( 0.069497  0.095433  0.127347)
 18:    465.36   0.002614   13.21  0.001753  (-0.007782  0.022668 -0.034325)
 19:    466.61   0.000058    0.29  0.000039  ( 0.001406  0.005014  0.003411)
 20:    544.90   0.025792  130.34  0.014771  (-0.002281 -0.088192  0.083594)
 21:    607.42   0.001207    6.10  0.000620  ( 0.003471  0.013141  0.020868)
 22:    622.58   0.002775   14.02  0.001391  (-0.023784 -0.024185  0.015496)
 23:    640.20   0.008646   43.70  0.004215  ( 0.045119 -0.037295  0.028071)
 24:    650.00   0.006309   31.88  0.003029  (-0.053298  0.005156 -0.012712)
 25:    815.72   0.027554  139.25  0.010541  ( 0.055252  0.035279  0.079017)
 26:    914.87   0.003923   19.83  0.001338  ( 0.025727 -0.018143  0.018633)
 27:    915.62   0.005945   30.04  0.002026  (-0.004837  0.040485  0.019072)
 28:    966.25   0.004144   20.94  0.001338  (-0.024639 -0.019793  0.018429)
 29:   1021.38   0.004740   23.95  0.001448  ( 0.000712  0.000383 -0.038048)
 30:   1055.10   0.002005   10.13  0.000593  ( 0.021032  0.012273  0.000313)
 31:   1079.10   0.001638    8.28  0.000474  ( 0.005998  0.008645  0.019048)
 32:   1281.02   0.006752   34.12  0.001645  (-0.023030 -0.027307  0.019201)
 33:   1318.98   0.002579   13.03  0.000610  ( 0.007176 -0.021726  0.009314)
 34:   1351.84   0.014860   75.10  0.003430  ( 0.019109 -0.033958  0.043727)
 35:   1394.26   0.088277  446.11  0.019758  (-0.068018  0.106667 -0.061270)
 36:   1416.00   0.029039  146.75  0.006400  ( 0.039449 -0.017317  0.067407)
 37:   1442.62   0.012483   63.09  0.002700  ( 0.051639 -0.004786 -0.003293)
 38:   1449.70   0.022669  114.56  0.004880  ( 0.004169 -0.004026 -0.069615)
 39:   1465.19   0.001911    9.66  0.000407  ( 0.014420  0.014056 -0.001253)
 40:   1558.74   0.151660  766.43  0.030363  (-0.062264 -0.082674  0.140182)
 41:   1577.95   0.166045  839.12  0.032838  ( 0.020618 -0.038775 -0.175810)
 42:   1649.28   0.029413  148.64  0.005565  ( 0.060008 -0.028407 -0.034019)
 43:   2323.73   0.000010    0.05  0.000001  (-0.001016 -0.000513  0.000085)
 44:   3029.88   0.004119   20.81  0.000424  (-0.012338  0.016344 -0.002206)
 45:   3086.52   0.005264   26.60  0.000532  (-0.016791 -0.015770  0.001285)
 46:   3104.91   0.000521    2.63  0.000052  ( 0.005288  0.003111  0.003839)
 47:   3117.79   0.014988   75.74  0.001500  ( 0.004692 -0.011951  0.036542)
 48:   3166.09   0.343628  1736.56  0.033869  (-0.056622  0.151915 -0.087094)
 49:   3183.64   0.000339    1.71  0.000033  ( 0.004733  0.002498  0.002140)
 50:   3751.56   0.069878  353.13  0.005813  (-0.035519 -0.037068  0.056365)

--------------------------
THERMOCHEMISTRY AT 298.15K
--------------------------

Temperature         ... 298.15 K
Pressure            ... 1.00 atm
Total Mass          ... 139.09 AMU

Throughout the following assumptions are being made:
  (1) The electronic state is orbitally nondegenerate
  (2) There are no thermally accessible electronically excited states
  (3) Hindered rotations indicated by low frequency modes are not
      treated as such but are treated as vibrations and this may
      cause some error
  (4) All equations used are the standard statistical mechanics
      equations for an ideal gas
  (5) All vibrations are strictly harmonic

freq.       8.79  E(vib)   ...       0.58
freq.      16.48  E(vib)   ...       0.57
freq.      20.10  E(vib)   ...       0.56
freq.      34.70  E(vib)   ...       0.54
freq.      43.24  E(vib)   ...       0.53
freq.      51.65  E(vib)   ...       0.52
freq.      57.20  E(vib)   ...       0.51
freq.      70.55  E(vib)   ...       0.50
freq.     116.87  E(vib)   ...       0.44
freq.     218.57  E(vib)   ...       0.33
freq.     340.46  E(vib)   ...       0.23
freq.     465.36  E(vib)   ...       0.16
freq.     466.61  E(vib)   ...       0.16
freq.     544.90  E(vib)   ...       0.12
freq.     607.42  E(vib)   ...       0.10
freq.     622.58  E(vib)   ...       0.09
freq.     640.20  E(vib)   ...       0.09
freq.     650.00  E(vib)   ...       0.08
freq.     815.72  E(vib)   ...       0.05
freq.     914.87  E(vib)   ...       0.03
freq.     915.62  E(vib)   ...       0.03
freq.     966.25  E(vib)   ...       0.03
freq.    1021.38  E(vib)   ...       0.02
freq.    1055.10  E(vib)   ...       0.02
freq.    1079.10  E(vib)   ...       0.02
freq.    1281.02  E(vib)   ...       0.01
freq.    1318.98  E(vib)   ...       0.01
freq.    1351.84  E(vib)   ...       0.01
freq.    1394.26  E(vib)   ...       0.00
freq.    1416.00  E(vib)   ...       0.00
freq.    1442.62  E(vib)   ...       0.00
freq.    1449.70  E(vib)   ...       0.00
freq.    1465.19  E(vib)   ...       0.00
freq.    1558.74  E(vib)   ...       0.00
freq.    1577.95  E(vib)   ...       0.00
freq.    1649.28  E(vib)   ...       0.00
freq.    2323.73  E(vib)   ...       0.00
freq.    3029.88  E(vib)   ...       0.00
freq.    3086.52  E(vib)   ...       0.00
freq.    3104.91  E(vib)   ...       0.00
freq.    3117.79  E(vib)   ...       0.00
freq.    3166.09  E(vib)   ...       0.00
freq.    3183.64  E(vib)   ...       0.00
freq.    3751.56  E(vib)   ...       0.00

------------
INNER ENERGY
------------

The inner energy is: U= E(el) + E(ZPE) + E(vib) + E(rot) + E(trans)
    E(el)   - is the total energy from the electronic structure calculation
              = E(kin-el) + E(nuc-el) + E(el-el) + E(nuc-nuc)
    E(ZPE)  - the the zero temperature vibrational energy from the frequency calculation
    E(vib)  - the the finite temperature correction to E(ZPE) due to population
              of excited vibrational states
    E(rot)  - is the rotational thermal energy
    E(trans)- is the translational thermal energy

Summary of contributions to the inner energy U:
Electronic energy                ...   -550.09001687 Eh
Zero point energy                ...      0.11940652 Eh      74.93 kcal/mol
Thermal vibrational correction   ...      0.01015252 Eh       6.37 kcal/mol
Thermal rotational correction    ...      0.00141627 Eh       0.89 kcal/mol
Thermal translational correction ...      0.00141627 Eh       0.89 kcal/mol
-----------------------------------------------------------------------
Total thermal energy                   -549.95762529 Eh

Summary of corrections to the electronic energy:
(perhaps to be used in another calculation)
Total thermal correction                  0.01298506 Eh       8.15 kcal/mol
Non-thermal (ZPE) correction              0.11940652 Eh      74.93 kcal/mol
-----------------------------------------------------------------------
Total correction                          0.13239158 Eh      83.08 kcal/mol

--------
ENTHALPY
--------

The enthalpy is H = U + kB*T
                kB is Boltzmann's constant
Total free energy                 ...   -549.95762529 Eh
Thermal Enthalpy correction       ...      0.00094421 Eh       0.59 kcal/mol
-----------------------------------------------------------------------
Total Enthalpy                    ...   -549.95668108 Eh

Note: Only C1 symmetry has been detected, increase convergence thresholds
      if your molecule has a higher symmetry. Symmetry factor of 1.0 is
      used for the rotational entropy correction.

Note: Rotational entropy computed according to Herzberg
Infrared and Raman Spectra, Chapter V,1, Van Nostrand Reinhold, 1945
Point Group:  C1, Symmetry Number:   1
Rotational constants in cm-1:     0.110853     0.011846     0.011217

Vibrational entropy computed according to the QRRHO of S. Grimme
Chem.Eur.J. 2012 18 9955

-------
ENTROPY
-------

The entropy contributions are T*S = T*(S(el)+S(vib)+S(rot)+S(trans))
     S(el)   - electronic entropy
     S(vib)  - vibrational entropy
     S(rot)  - rotational entropy
     S(trans)- translational entropy
The entropies will be listed as multiplied by the temperature to get
units of energy

Electronic entropy                ...      0.00000000 Eh      0.00 kcal/mol
Vibrational entropy               ...      0.02060243 Eh     12.93 kcal/mol
Rotational entropy                ...      0.01476312 Eh      9.26 kcal/mol
Translational entropy             ...      0.01933855 Eh     12.14 kcal/mol
-----------------------------------------------------------------------
Final entropy term                ...      0.05470411 Eh     34.33 kcal/mol

In case the symmetry of your molecule has not been determined correctly
or in case you have a reason to use a different symmetry number we print
out the resulting rotational entropy values for sn=1,12 :
 --------------------------------------------------------
|  sn= 1 | S(rot)=       0.01476312 Eh      9.26 kcal/mol|
|  sn= 2 | S(rot)=       0.01410867 Eh      8.85 kcal/mol|
|  sn= 3 | S(rot)=       0.01372583 Eh      8.61 kcal/mol|
|  sn= 4 | S(rot)=       0.01345421 Eh      8.44 kcal/mol|
|  sn= 5 | S(rot)=       0.01324352 Eh      8.31 kcal/mol|
|  sn= 6 | S(rot)=       0.01307138 Eh      8.20 kcal/mol|
|  sn= 7 | S(rot)=       0.01292583 Eh      8.11 kcal/mol|
|  sn= 8 | S(rot)=       0.01279975 Eh      8.03 kcal/mol|
|  sn= 9 | S(rot)=       0.01268855 Eh      7.96 kcal/mol|
|  sn=10 | S(rot)=       0.01258907 Eh      7.90 kcal/mol|
|  sn=11 | S(rot)=       0.01249908 Eh      7.84 kcal/mol|
|  sn=12 | S(rot)=       0.01241692 Eh      7.79 kcal/mol|
 --------------------------------------------------------

-------------------
GIBBS FREE ENERGY
-------------------

                             ****ORCA TERMINATED NORMALLY****
TOTAL RUN TIME: 0 days 0 hours 6 minutes 4 seconds 756 msec
