                         Program Version 5.0.4 -  RELEASE  -
|  1> !  NUMFREQ B3LYP def2-TZVP CPCM D3
|  2> %pal nprocs 102 end
|  3> %cpcm epsilon 78.4 end
|  4> *xyz -1 1
|  5> C   -2.18091304322271 -0.8211857453779 -0.10711869953461
|  6> H   -3.09037530235985 -0.47127583326458 -0.5817602992628
|  7> H   -1.12639879590771 -0.54437667114699 -0.99367632617575 M = 2
|  8> H   -2.13751353719883 -1.8801790704357 0.11881127789852
|  9> N   -1.87232377094995 -0.05076536116006 1.02427781727404
| 10> O   -1.13879712650197 -0.53253611904378 1.91315137491914
| 11> O   -2.25293400704438 1.13493315270564 1.08557132095332
| 12> C   1.89560551752709 1.27426389333676 0.23591743574729
| 13> O   2.53133153677964 2.1425666974133 0.81602453778664
| 14> O   1.14851417288094 1.5181471027778 -0.80074234806671
| 15> C   1.96535849960825 -0.16909903025522 0.72347530751884
| 16> Cl   3.05651646046298 -1.12309112481237 -0.36674874344687
| 17> H   0.99681800332688 -0.6585788628463 0.71229766882925
| 18> H   2.40593312991389 -0.20533032629269 1.71311147657261
| 19> H   -0.56523381489332 0.02242212638502 -2.55823495308662
| 20> O   -0.18339311725382 -0.30429854538813 -1.73269921339703
| 21> H   0.54780519483287 0.6683837174052 -1.20165763452926
| 22> *
| 23>
| 24>                          ****END OF INPUT****

CARTESIAN COORDINATES (ANGSTROEM)
---------------------------------
  C     -2.180913   -0.821186   -0.107119
  H     -3.090375   -0.471276   -0.581760
  H     -1.126399   -0.544377   -0.993676
  H     -2.137514   -1.880179    0.118811
  N     -1.872324   -0.050765    1.024278
  O     -1.138797   -0.532536    1.913151
  O     -2.252934    1.134933    1.085571
  C      1.895606    1.274264    0.235917
  O      2.531332    2.142567    0.816025
  O      1.148514    1.518147   -0.800742
  C      1.965358   -0.169099    0.723475
  Cl     3.056516   -1.123091   -0.366749
  H      0.996818   -0.658579    0.712298
  H      2.405933   -0.205330    1.713111
  H     -0.565234    0.022422   -2.558235
  O     -0.183393   -0.304299   -1.732699
  H      0.547805    0.668384   -1.201658

 Total Charge           Charge          ....   -1
 Multiplicity           Mult            ....    1
 Number of Electrons    NEL             ....   90
 Basis Dimension        Dim             ....  358

ORBITAL ENERGIES
----------------

  NO   OCC          E(Eh)            E(eV)
   0   2.0000    -101.518175     -2762.4500
   1   2.0000     -19.128506      -520.5131
   2   2.0000     -19.124262      -520.3976
   3   2.0000     -19.124091      -520.3930
   4   2.0000     -19.101111      -519.7677
   5   2.0000     -19.100834      -519.7601
   6   2.0000     -14.517436      -395.0395
   7   2.0000     -10.295355      -280.1508
   8   2.0000     -10.227511      -278.3047
   9   2.0000     -10.166890      -276.6552
  10   2.0000      -9.450197      -257.1529
  11   2.0000      -7.211750      -196.2417
  12   2.0000      -7.203197      -196.0089
  13   2.0000      -7.203034      -196.0045
  14   2.0000      -1.188307       -32.3355
  15   2.0000      -1.079431       -29.3728
  16   2.0000      -1.010627       -27.5006
  17   2.0000      -0.998243       -27.1636
  18   2.0000      -0.964172       -26.2364
  19   2.0000      -0.854271       -23.2459
  20   2.0000      -0.789248       -21.4765
  21   2.0000      -0.702371       -19.1125
  22   2.0000      -0.587480       -15.9862
  23   2.0000      -0.581900       -15.8343
  24   2.0000      -0.519525       -14.1370
  25   2.0000      -0.515477       -14.0268
  26   2.0000      -0.504633       -13.7318
  27   2.0000      -0.498967       -13.5776
  28   2.0000      -0.476208       -12.9583
  29   2.0000      -0.460799       -12.5390
  30   2.0000      -0.456124       -12.4118
  31   2.0000      -0.432907       -11.7800
  32   2.0000      -0.405512       -11.0345
  33   2.0000      -0.400716       -10.9040
  34   2.0000      -0.394888       -10.7454
  35   2.0000      -0.350190        -9.5292
  36   2.0000      -0.322604        -8.7785
  37   2.0000      -0.308543        -8.3959
  38   2.0000      -0.301818        -8.2129
  39   2.0000      -0.298003        -8.1091
  40   2.0000      -0.293587        -7.9889
  41   2.0000      -0.291259        -7.9256
  42   2.0000      -0.269304        -7.3281
  43   2.0000      -0.266754        -7.2588
  44   2.0000      -0.231422        -6.2973
  45   0.0000      -0.045768        -1.2454
  46   0.0000      -0.020890        -0.5685
  47   0.0000       0.045870         1.2482
  48   0.0000       0.063110         1.7173
  49   0.0000       0.093652         2.5484

MULLIKEN ATOMIC CHARGES
-----------------------
   0 C :   -0.458883
   1 H :    0.141797
   2 H :    0.342633
   3 H :    0.136448
   4 N :    0.421409
   5 O :   -0.464375
   6 O :   -0.465278
   7 C :    0.293209
   8 O :   -0.436049
   9 O :   -0.435777
  10 C :   -0.131618
  11 Cl:   -0.205935
  12 H :    0.156022
  13 H :    0.154701
  14 H :    0.340021
  15 O :   -0.743005
  16 H :    0.354680
Sum of atomic charges:   -1.0000000

LOEWDIN ATOMIC CHARGES
----------------------
   0 C :   -0.397733
   1 H :    0.114178
   2 H :    0.153380
   3 H :    0.113509
   4 N :   -0.086725
   5 O :   -0.169474
   6 O :   -0.175099
   7 C :   -0.609819
   8 O :    0.002126
   9 O :    0.055212
  10 C :   -0.432618
  11 Cl:    0.228425
  12 H :    0.127467
  13 H :    0.134274
  14 H :    0.149471
  15 O :   -0.349311
  16 H :    0.142737

  Mayer bond orders larger than 0.100000
B(  0-C ,  1-H ) :   0.9448 B(  0-C ,  2-H ) :   0.4332 B(  0-C ,  3-H ) :   0.9458
B(  0-C ,  4-N ) :   1.0871 B(  2-H , 15-O ) :   0.4603 B(  4-N ,  5-O ) :   1.4605
B(  4-N ,  6-O ) :   1.4650 B(  5-O ,  6-O ) :   0.1230 B(  7-C ,  8-O ) :   1.9902
B(  7-C ,  9-O ) :   1.3847 B(  7-C , 10-C ) :   0.9427 B(  9-O , 16-H ) :   0.5583
B( 10-C , 11-Cl) :   0.9612 B( 10-C , 12-H ) :   0.9367 B( 10-C , 13-H ) :   0.9594
B( 14-H , 15-O ) :   0.8816 B( 15-O , 16-H ) :   0.3866

Dispersion correction           -0.024188407
FINAL SINGLE POINT ENERGY     -1009.624661335666
Dispersion correction            ... done

DIPOLE MOMENT
-------------
                                X             Y             Z
Electronic contribution:      8.01656      -0.73772       0.49813
Nuclear contribution   :     -8.35594      -1.37225      -1.88306
                        -----------------------------------------
Total Dipole Moment    :     -0.33938      -2.10997      -1.38493
                        -----------------------------------------
Magnitude (a.u.)       :      2.54660
Magnitude (Debye)      :      6.47295

VIBRATIONAL FREQUENCIES
-----------------------

Scaling factor for frequencies =  1.000000000 (already applied!)

   0:         0.00 cm**-1
   1:         0.00 cm**-1
   2:         0.00 cm**-1
   3:         0.00 cm**-1
   4:         0.00 cm**-1
   5:         0.00 cm**-1
   6:     -1120.86 cm**-1 ***imaginary mode***
   7:       -23.88 cm**-1 ***imaginary mode***
   8:        15.91 cm**-1
   9:        51.57 cm**-1
  10:        65.41 cm**-1
  11:        75.99 cm**-1
  12:        83.74 cm**-1
  13:       116.27 cm**-1
  14:       143.03 cm**-1
  15:       199.82 cm**-1
  16:       342.54 cm**-1
  17:       400.05 cm**-1
  18:       444.67 cm**-1
  19:       485.20 cm**-1
  20:       515.06 cm**-1
  21:       554.05 cm**-1
  22:       578.39 cm**-1
  23:       650.41 cm**-1
  24:       672.85 cm**-1
  25:       709.08 cm**-1
  26:       778.66 cm**-1
  27:       807.30 cm**-1
  28:       892.87 cm**-1
  29:       937.44 cm**-1
  30:       945.62 cm**-1
  31:      1003.41 cm**-1
  32:      1036.15 cm**-1
  33:      1133.84 cm**-1
  34:      1153.77 cm**-1
  35:      1199.05 cm**-1
  36:      1229.55 cm**-1
  37:      1258.00 cm**-1
  38:      1287.60 cm**-1
  39:      1388.48 cm**-1
  40:      1390.59 cm**-1
  41:      1430.94 cm**-1
  42:      1458.44 cm**-1
  43:      1476.68 cm**-1
  44:      1659.55 cm**-1
  45:      1727.62 cm**-1
  46:      3113.08 cm**-1
  47:      3120.07 cm**-1
  48:      3191.45 cm**-1
  49:      3209.21 cm**-1
  50:      3778.73 cm**-1

IR SPECTRUM
-----------

 Mode   freq       eps      Int      T**2         TX        TY        TZ
       cm**-1   L/(mol*cm) km/mol    a.u.
----------------------------------------------------------------------------
  8:     15.91   0.000309    1.56  0.006057  ( 0.026201 -0.067506 -0.028512)
  9:     51.57   0.000161    0.81  0.000974  ( 0.009183  0.012924 -0.026882)
 10:     65.41   0.000942    4.76  0.004495  ( 0.062803 -0.017520 -0.015610)
 11:     75.99   0.000806    4.07  0.003310  ( 0.050250 -0.011213 -0.025683)
 12:     83.74   0.002005   10.13  0.007472  ( 0.051947  0.005677 -0.068860)
 13:    116.27   0.000439    2.22  0.001179  ( 0.007700 -0.003228  0.033307)
 14:    143.03   0.001470    7.43  0.003206  ( 0.051450  0.023206  0.004573)
 15:    199.82   0.004037   20.40  0.006304  (-0.022137  0.023746  0.072460)
 16:    342.54   0.123462  623.93  0.112478  ( 0.101965  0.170135  0.270435)
 17:    400.05   0.009652   48.78  0.007529  ( 0.056342 -0.054640 -0.037002)
 18:    444.67   0.005936   30.00  0.004166  ( 0.009726  0.041368  0.048577)
 19:    485.20   0.012294   62.13  0.007907  ( 0.086289  0.016802  0.013386)
 20:    515.06   0.003715   18.78  0.002251  ( 0.017064  0.035332  0.026672)
 21:    554.05   0.012750   64.43  0.007181  ( 0.046278  0.070035 -0.011611)
 22:    578.39   0.069300  350.22  0.037390  ( 0.030180  0.078326  0.174196)
 23:    650.41   0.042864  216.62  0.020566  (-0.108968  0.000610 -0.093229)
 24:    672.85   0.013304   67.23  0.006170  (-0.062892 -0.047038 -0.001538)
 25:    709.08   0.010530   53.21  0.004634  ( 0.038394  0.041222  0.038221)
 26:    778.66   0.011301   57.11  0.004529  ( 0.056135  0.036950 -0.003548)
 27:    807.30   0.008475   42.83  0.003276  ( 0.020901  0.030368  0.043782)
 28:    892.87   0.049843  251.88  0.017420  (-0.053526 -0.067033 -0.100309)
 29:    937.44   0.008777   44.35  0.002922  ( 0.018243  0.020991  0.046349)
 30:    945.62   0.002463   12.44  0.000813  (-0.021956 -0.006959 -0.016798)
 31:   1003.41   0.024953  126.10  0.007760  (-0.026007 -0.048826 -0.068557)
 32:   1036.15   0.015579   78.73  0.004692  (-0.031232 -0.045393 -0.040695)
 33:   1133.84   0.022718  114.81  0.006253  (-0.011415  0.077287 -0.012201)
 34:   1153.77   0.026891  135.90  0.007273  (-0.040067 -0.024757 -0.071099)
 35:   1199.05   0.073660  372.25  0.019171  (-0.127330  0.005272 -0.054130)
 36:   1229.55   0.384050  1940.83  0.097473  ( 0.208470  0.133978  0.189904)
 37:   1258.00   0.144055  727.99  0.035735  (-0.076492 -0.075924 -0.155303)
 38:   1287.60   0.109815  554.96  0.026615  ( 0.077039  0.080002  0.119497)
 39:   1388.48   0.042542  214.99  0.009562  ( 0.014607  0.096630  0.003275)
 40:   1390.59   0.144160  728.53  0.032351  (-0.070900 -0.123976 -0.109336)
 41:   1430.94   0.113665  574.42  0.024788  ( 0.084861 -0.123654  0.047923)
 42:   1458.44   0.015953   80.62  0.003413  ( 0.029695  0.039487  0.031185)
 43:   1476.68   0.010400   52.56  0.002198  ( 0.001283 -0.039155  0.025748)
 44:   1659.55   0.075219  380.13  0.014144  (-0.043720 -0.110529  0.004024)
 45:   1727.62   0.049252  248.90  0.008896  ( 0.040283  0.072519  0.044884)
 46:   3113.08   0.000819    4.14  0.000082  (-0.003177 -0.005373 -0.006566)
 47:   3120.07   0.000555    2.81  0.000056  (-0.003275 -0.002622 -0.006158)
 48:   3191.45   0.000834    4.21  0.000082  ( 0.006637  0.000998 -0.006038)
 49:   3209.21   0.001353    6.84  0.000132  ( 0.005852 -0.008817  0.004425)
 50:   3778.73   0.014677   74.17  0.001212  (-0.007622  0.008031 -0.033008)

--------------------------
THERMOCHEMISTRY AT 298.15K
--------------------------

Temperature         ... 298.15 K
Pressure            ... 1.00 atm
Total Mass          ... 173.54 AMU

Throughout the following assumptions are being made:
  (1) The electronic state is orbitally nondegenerate
  (2) There are no thermally accessible electronically excited states
  (3) Hindered rotations indicated by low frequency modes are not
      treated as such but are treated as vibrations and this may
      cause some error
  (4) All equations used are the standard statistical mechanics
      equations for an ideal gas
  (5) All vibrations are strictly harmonic

freq.      15.91  E(vib)   ...       0.57
freq.      51.57  E(vib)   ...       0.52
freq.      65.41  E(vib)   ...       0.50
freq.      75.99  E(vib)   ...       0.49
freq.      83.74  E(vib)   ...       0.48
freq.     116.27  E(vib)   ...       0.44
freq.     143.03  E(vib)   ...       0.41
freq.     199.82  E(vib)   ...       0.35
freq.     342.54  E(vib)   ...       0.23
freq.     400.05  E(vib)   ...       0.19
freq.     444.67  E(vib)   ...       0.17
freq.     485.20  E(vib)   ...       0.15
freq.     515.06  E(vib)   ...       0.13
freq.     554.05  E(vib)   ...       0.12
freq.     578.39  E(vib)   ...       0.11
freq.     650.41  E(vib)   ...       0.08
freq.     672.85  E(vib)   ...       0.08
freq.     709.08  E(vib)   ...       0.07
freq.     778.66  E(vib)   ...       0.05
freq.     807.30  E(vib)   ...       0.05
freq.     892.87  E(vib)   ...       0.03
freq.     937.44  E(vib)   ...       0.03
freq.     945.62  E(vib)   ...       0.03
freq.    1003.41  E(vib)   ...       0.02
freq.    1036.15  E(vib)   ...       0.02
freq.    1133.84  E(vib)   ...       0.01
freq.    1153.77  E(vib)   ...       0.01
freq.    1199.05  E(vib)   ...       0.01
freq.    1229.55  E(vib)   ...       0.01
freq.    1258.00  E(vib)   ...       0.01
freq.    1287.60  E(vib)   ...       0.01
freq.    1388.48  E(vib)   ...       0.00
freq.    1390.59  E(vib)   ...       0.00
freq.    1430.94  E(vib)   ...       0.00
freq.    1458.44  E(vib)   ...       0.00
freq.    1476.68  E(vib)   ...       0.00
freq.    1659.55  E(vib)   ...       0.00
freq.    1727.62  E(vib)   ...       0.00
freq.    3113.08  E(vib)   ...       0.00
freq.    3120.07  E(vib)   ...       0.00
freq.    3191.45  E(vib)   ...       0.00
freq.    3209.21  E(vib)   ...       0.00
freq.    3778.73  E(vib)   ...       0.00

------------
INNER ENERGY
------------

The inner energy is: U= E(el) + E(ZPE) + E(vib) + E(rot) + E(trans)
    E(el)   - is the total energy from the electronic structure calculation
              = E(kin-el) + E(nuc-el) + E(el-el) + E(nuc-nuc)
    E(ZPE)  - the the zero temperature vibrational energy from the frequency calculation
    E(vib)  - the the finite temperature correction to E(ZPE) due to population
              of excited vibrational states
    E(rot)  - is the rotational thermal energy
    E(trans)- is the translational thermal energy

Summary of contributions to the inner energy U:
Electronic energy                ...  -1009.62466134 Eh
Zero point energy                ...      0.10641809 Eh      66.78 kcal/mol
Thermal vibrational correction   ...      0.00864786 Eh       5.43 kcal/mol
Thermal rotational correction    ...      0.00141627 Eh       0.89 kcal/mol
Thermal translational correction ...      0.00141627 Eh       0.89 kcal/mol
-----------------------------------------------------------------------
Total thermal energy                  -1009.50676285 Eh

Summary of corrections to the electronic energy:
(perhaps to be used in another calculation)
Total thermal correction                  0.01148040 Eh       7.20 kcal/mol
Non-thermal (ZPE) correction              0.10641809 Eh      66.78 kcal/mol
-----------------------------------------------------------------------
Total correction                          0.11789849 Eh      73.98 kcal/mol

--------
ENTHALPY
--------

The enthalpy is H = U + kB*T
                kB is Boltzmann's constant
Total free energy                 ...  -1009.50676285 Eh
Thermal Enthalpy correction       ...      0.00094421 Eh       0.59 kcal/mol
-----------------------------------------------------------------------
Total Enthalpy                    ...  -1009.50581864 Eh

Note: Only C1 symmetry has been detected, increase convergence thresholds
      if your molecule has a higher symmetry. Symmetry factor of 1.0 is
      used for the rotational entropy correction.

Note: Rotational entropy computed according to Herzberg
Infrared and Raman Spectra, Chapter V,1, Van Nostrand Reinhold, 1945
Point Group:  C1, Symmetry Number:   1
Rotational constants in cm-1:     0.044762     0.019051     0.017440

Vibrational entropy computed according to the QRRHO of S. Grimme
Chem.Eur.J. 2012 18 9955

-------
ENTROPY
-------

The entropy contributions are T*S = T*(S(el)+S(vib)+S(rot)+S(trans))
     S(el)   - electronic entropy
     S(vib)  - vibrational entropy
     S(rot)  - rotational entropy
     S(trans)- translational entropy
The entropies will be listed as multiplied by the temperature to get
units of energy

Electronic entropy                ...      0.00000000 Eh      0.00 kcal/mol
Vibrational entropy               ...      0.01607824 Eh     10.09 kcal/mol
Rotational entropy                ...      0.01475856 Eh      9.26 kcal/mol
Translational entropy             ...      0.01965191 Eh     12.33 kcal/mol
-----------------------------------------------------------------------
Final entropy term                ...      0.05048871 Eh     31.68 kcal/mol

In case the symmetry of your molecule has not been determined correctly
or in case you have a reason to use a different symmetry number we print
out the resulting rotational entropy values for sn=1,12 :
 --------------------------------------------------------
|  sn= 1 | S(rot)=       0.01475856 Eh      9.26 kcal/mol|
|  sn= 2 | S(rot)=       0.01410411 Eh      8.85 kcal/mol|
|  sn= 3 | S(rot)=       0.01372127 Eh      8.61 kcal/mol|
|  sn= 4 | S(rot)=       0.01344965 Eh      8.44 kcal/mol|
|  sn= 5 | S(rot)=       0.01323896 Eh      8.31 kcal/mol|
|  sn= 6 | S(rot)=       0.01306682 Eh      8.20 kcal/mol|
|  sn= 7 | S(rot)=       0.01292127 Eh      8.11 kcal/mol|
|  sn= 8 | S(rot)=       0.01279519 Eh      8.03 kcal/mol|
|  sn= 9 | S(rot)=       0.01268398 Eh      7.96 kcal/mol|
|  sn=10 | S(rot)=       0.01258451 Eh      7.90 kcal/mol|
|  sn=11 | S(rot)=       0.01249452 Eh      7.84 kcal/mol|
|  sn=12 | S(rot)=       0.01241236 Eh      7.79 kcal/mol|
 --------------------------------------------------------

-------------------
GIBBS FREE ENERGY
-------------------

The Gibbs free energy is G = H - T*S

                             ****ORCA TERMINATED NORMALLY****
TOTAL RUN TIME: 0 days 0 hours 6 minutes 43 seconds 175 msec
