                         Program Version 5.0.4 -  RELEASE  -
|  1> !  opt B3LYP def2-TZVP CPCM D3
|  2> %pal nprocs 102 end
|  3> %cpcm epsilon 78.4 end
|  4> *xyz -1 1
|  5> C   -1.37313241 -0.5096196 0.38753146
|  6> H   0.62442023 -1.16126976 -0.10362955
|  7> H   -1.06953434 -0.32093375 1.39999416
|  8> H   -1.57825879 -1.53304657 0.13759117
|  9> N   -1.52210493 0.46528898 -0.48626555
| 10> O   -1.30534001 1.67144534 -0.17756733
| 11> O   -1.87875623 0.24106519 -1.67881949
| 12> C   3.78877429 0.06739565 -1.97774937
| 13> O   2.97405535 0.6464525 -1.08367877
| 14> O   3.65779039 -1.10991873 -2.25090465
| 15> C   4.78645337 1.00980746 -2.52745627
| 16> H   4.87346815 0.92494293 -3.62336039
| 17> H   5.79268154 0.79772435 -2.11969068
| 18> H   4.56635828 2.06543772 -2.29233768
| 19> H   2.32803693 -0.01745273 -0.63570921
| 20> O   1.58229735 -1.32664518 -0.0208918
| 21> H   1.80404824 -1.93139087 -0.74724792
| 22> *
| 23>
| 24>                          ****END OF INPUT****
 Total Charge           Charge          ....   -1
 Multiplicity           Mult            ....    1
 Number of Electrons    NEL             ....   74
 Basis Dimension        Dim             ....  327

ORBITAL ENERGIES
----------------

  NO   OCC          E(Eh)            E(eV)
   0   2.0000     -19.144945      -520.9604
   1   2.0000     -19.138829      -520.7940
   2   2.0000     -19.107965      -519.9542
   3   2.0000     -19.076004      -519.0845
   4   2.0000     -19.075520      -519.0713
   5   2.0000     -14.478791      -393.9879
   6   2.0000     -10.300578      -280.2930
   7   2.0000     -10.173218      -276.8273
   8   2.0000     -10.155232      -276.3379
   9   2.0000      -1.146234       -31.1906
  10   2.0000      -1.090498       -29.6740
  11   2.0000      -1.022730       -27.8299
  12   2.0000      -0.998053       -27.1584
  13   2.0000      -0.959017       -26.0962
  14   2.0000      -0.785493       -21.3744
  15   2.0000      -0.749530       -20.3957
  16   2.0000      -0.597970       -16.2716
  17   2.0000      -0.561754       -15.2861
  18   2.0000      -0.536032       -14.5862
  19   2.0000      -0.492588       -13.4040
  20   2.0000      -0.484121       -13.1736
  21   2.0000      -0.471921       -12.8416
  22   2.0000      -0.471332       -12.8256
  23   2.0000      -0.470888       -12.8135
  24   2.0000      -0.461442       -12.5565
  25   2.0000      -0.416672       -11.3382
  26   2.0000      -0.395757       -10.7691
  27   2.0000      -0.387233       -10.5372
  28   2.0000      -0.384218       -10.4551
  29   2.0000      -0.379395       -10.3239
  30   2.0000      -0.323356        -8.7990
  31   2.0000      -0.313712        -8.5365
  32   2.0000      -0.279452        -7.6043
  33   2.0000      -0.272741        -7.4217
  34   2.0000      -0.256740        -6.9863
  35   2.0000      -0.227456        -6.1894
  36   2.0000      -0.198167        -5.3924
  37   0.0000       0.002294         0.0624
  38   0.0000       0.005320         0.1448
  39   0.0000       0.045135         1.2282
  40   0.0000       0.063848         1.7374
  41   0.0000       0.099451         2.7062

MULLIKEN ATOMIC CHARGES
-----------------------
   0 C :   -0.500605
   1 H :    0.360340
   2 H :    0.143505
   3 H :    0.145421
   4 N :    0.434892
   5 O :   -0.597363
   6 O :   -0.598826
   7 C :    0.360982
   8 O :   -0.443728
   9 O :   -0.440845
  10 C :   -0.364875
  11 H :    0.148879
  12 H :    0.156124
  13 H :    0.139761
  14 H :    0.368382
  15 O :   -0.672504
  16 H :    0.360459
Sum of atomic charges:   -1.0000000

LOEWDIN ATOMIC CHARGES
----------------------
   0 C :   -0.430769
   1 H :    0.153451
   2 H :    0.102596
   3 H :    0.102746
   4 N :   -0.124119
   5 O :   -0.299065
   6 O :   -0.301692
   7 C :   -0.542422
   8 O :    0.057546
   9 O :    0.018947
  10 C :   -0.265916
  11 H :    0.144190
  12 H :    0.151381
  13 H :    0.138759
  14 H :    0.181807
  15 O :   -0.259208
  16 H :    0.171767

  Mayer bond orders larger than 0.100000
B(  0-C ,  2-H ) :   0.9602 B(  0-C ,  3-H ) :   0.9545 B(  0-C ,  4-N ) :   1.4472
B(  0-C ,  5-O ) :   0.1868 B(  0-C ,  6-O ) :   0.1981 B(  1-H , 15-O ) :   0.8288
B(  4-N ,  5-O ) :   1.3166 B(  4-N ,  6-O ) :   1.3178 B(  7-C ,  8-O ) :   1.2518
B(  7-C ,  9-O ) :   1.9347 B(  7-C , 10-C ) :   0.9757 B(  8-O , 14-H ) :   0.7317
B( 10-C , 11-H ) :   0.9556 B( 10-C , 12-H ) :   0.9404 B( 10-C , 13-H ) :   0.9643
B( 14-H , 15-O ) :   0.1690 B( 15-O , 16-H ) :   0.8570

Dispersion correction           -0.017425383
FINAL SINGLE POINT ENERGY      -550.064953406572
Dispersion correction            ... done
Dispersion correction           -0.017496372
FINAL SINGLE POINT ENERGY      -550.069081327826
Dispersion correction            ... done
Dispersion correction           -0.017530039
FINAL SINGLE POINT ENERGY      -550.070464987336
Dispersion correction            ... done
FINAL SINGLE POINT ENERGY      -550.070760156153
FINAL SINGLE POINT ENERGY      -550.071095124239
FINAL SINGLE POINT ENERGY      -550.071261819086
FINAL SINGLE POINT ENERGY      -550.071442783249
FINAL SINGLE POINT ENERGY      -550.071574890297
FINAL SINGLE POINT ENERGY      -550.071807626511
FINAL SINGLE POINT ENERGY      -550.071556338791
FINAL SINGLE POINT ENERGY      -550.074294527544
FINAL SINGLE POINT ENERGY      -550.074336321737
FINAL SINGLE POINT ENERGY      -550.074356976226
FINAL SINGLE POINT ENERGY      -550.074367992012
FINAL SINGLE POINT ENERGY      -550.074374152506
FINAL SINGLE POINT ENERGY      -550.074380417371
FINAL SINGLE POINT ENERGY      -550.074386096479
Dispersion correction           -0.018602067
FINAL SINGLE POINT ENERGY      -550.074393923748
Dispersion correction            ... done
Dispersion correction           -0.018585518
FINAL SINGLE POINT ENERGY      -550.074403061442
Dispersion correction            ... done

CARTESIAN COORDINATES (ANGSTROEM)
---------------------------------
  C     -1.057334   -0.342100    0.090761
  H      0.717801   -1.285708    0.285754
  H     -1.112075   -0.027948    1.119617
  H     -1.583219   -1.201243   -0.291663
  N     -0.599063    0.541496   -0.796660
  O     -0.085660    1.649667   -0.409363
  O     -0.633908    0.287365   -2.050906
  C      3.346028    0.073997   -1.979670
  O      3.235307    0.132670   -0.654756
  O      2.846414   -0.811688   -2.648430
  C      4.136710    1.218151   -2.547402
  H      4.343381    1.044848   -3.600147
  H      5.068139    1.347428   -1.995386
  H      3.557808    2.138009   -2.436151
  H      2.639248   -0.601053   -0.318781
  O      1.614618   -1.667402    0.446815
  H      1.617061   -2.517207   -0.013824

Dispersion correction           -0.018581525
FINAL SINGLE POINT ENERGY      -550.074410247914
Dispersion correction            ... done

DIPOLE MOMENT
-------------
                                X             Y             Z
Electronic contribution:     -1.25215       0.20115      -1.30602
Nuclear contribution   :      3.63108      -1.65615       1.74581
                        -----------------------------------------
Total Dipole Moment    :      2.37893      -1.45500       0.43979
                        -----------------------------------------
Magnitude (a.u.)       :      2.82307
Magnitude (Debye)      :      7.17568

Rotational constants in cm-1:     0.063821     0.026758     0.023254
Rotational constants in MHz :  1913.298997   802.171516   697.135822

                             ****ORCA TERMINATED NORMALLY****
TOTAL RUN TIME: 0 days 0 hours 26 minutes 21 seconds 446 msec
