                         Program Version 5.0.4 -  RELEASE  -
|  1> !  opt B3LYP def2-TZVP CPCM D3
|  2> %pal nprocs 102 end
|  3> %cpcm epsilon 78.4 end
|  4> *xyz -1 1
|  5> C   0.46770767 -1.16442653 0.81931018
|  6> H   0.95251561 -1.09062455 -0.18045472
|  7> H   0.96404287 -0.43312479 1.49425321
|  8> H   0.63976533 -2.17724574 1.23357969
|  9> N   -0.95492685 -0.87660791 0.70247574
| 10> O   -1.75932263 -1.66547625 1.17844061
| 11> O   -1.30898785 0.13799844 0.12179536
| 12> C   0.66868277 2.71152924 -3.76935093
| 13> O   1.49603957 3.29175587 -3.03373886
| 14> O   1.00305308 1.92141414 -4.6759545
| 15> C   -0.8000074 3.00789427 -3.57727442
| 16> H   -1.43323006 2.29064491 -4.11255742
| 17> H   -1.04087474 4.01194409 -3.94798742
| 18> H   -1.07306222 2.9741753 -2.51589806
| 19> H   1.79814 1.46521055 -1.85549354
| 20> O   1.23245422 0.80007416 -1.44101307
| 21> H   0.63875194 1.3026667 -0.87558125
| 22> *
| 23>
| 24>                          ****END OF INPUT****
 Total Charge           Charge          ....   -1
 Multiplicity           Mult            ....    1
 Number of Electrons    NEL             ....   74
 Basis Dimension        Dim             ....  327

ORBITAL ENERGIES
----------------

  NO   OCC          E(Eh)            E(eV)
   0   2.0000     -19.168852      -521.6110
   1   2.0000     -19.168773      -521.6088
   2   2.0000     -19.110282      -520.0172
   3   2.0000     -19.044633      -518.2308
   4   2.0000     -19.043642      -518.2039
   5   2.0000     -14.560006      -396.1979
   6   2.0000     -10.234187      -278.4864
   7   2.0000     -10.220416      -278.1117
   8   2.0000     -10.143194      -276.0103
   9   2.0000      -1.244361       -33.8608
  10   2.0000      -1.064900       -28.9774
  11   2.0000      -1.014623       -27.6093
  12   2.0000      -0.996042       -27.1037
  13   2.0000      -0.917105       -24.9557
  14   2.0000      -0.819168       -22.2907
  15   2.0000      -0.702063       -19.1041
  16   2.0000      -0.622232       -16.9318
  17   2.0000      -0.555854       -15.1256
  18   2.0000      -0.547178       -14.8895
  19   2.0000      -0.533417       -14.5150
  20   2.0000      -0.516588       -14.0571
  21   2.0000      -0.484654       -13.1881
  22   2.0000      -0.426622       -11.6090
  23   2.0000      -0.422218       -11.4891
  24   2.0000      -0.415409       -11.3039
  25   2.0000      -0.412187       -11.2162
  26   2.0000      -0.411817       -11.2061
  27   2.0000      -0.378930       -10.3112
  28   2.0000      -0.362240        -9.8571
  29   2.0000      -0.343137        -9.3372
  30   2.0000      -0.329899        -8.9770
  31   2.0000      -0.329090        -8.9550
  32   2.0000      -0.307724        -8.3736
  33   2.0000      -0.300516        -8.1774
  34   2.0000      -0.241150        -6.5620
  35   2.0000      -0.234610        -6.3840
  36   2.0000      -0.215656        -5.8683
  37   0.0000      -0.083505        -2.2723
  38   0.0000       0.037895         1.0312
  39   0.0000       0.063350         1.7238
  40   0.0000       0.068977         1.8769
  41   0.0000       0.096228         2.6185

MULLIKEN ATOMIC CHARGES
-----------------------
   0 C :   -0.297472
   1 H :    0.192278
   2 H :    0.184389
   3 H :    0.169645
   4 N :    0.439140
   5 O :   -0.351526
   6 O :   -0.350499
   7 C :    0.245230
   8 O :   -0.601388
   9 O :   -0.582055
  10 C :   -0.365105
  11 H :    0.091698
  12 H :    0.115165
  13 H :    0.105553
  14 H :    0.338962
  15 O :   -0.680190
  16 H :    0.346175
Sum of atomic charges:   -1.0000000

LOEWDIN ATOMIC CHARGES
----------------------
   0 C :   -0.265127
   1 H :    0.144624
   2 H :    0.150528
   3 H :    0.137968
   4 N :   -0.066367
   5 O :   -0.059213
   6 O :   -0.054708
   7 C :   -0.747882
   8 O :   -0.147021
   9 O :   -0.142069
  10 C :   -0.312775
  11 H :    0.115999
  12 H :    0.127475
  13 H :    0.120556
  14 H :    0.152420
  15 O :   -0.310860
  16 H :    0.156453

  Mayer bond orders larger than 0.100000
B(  0-C ,  1-H ) :   0.9286 B(  0-C ,  2-H ) :   0.9343 B(  0-C ,  3-H ) :   0.9501
B(  0-C ,  4-N ) :   0.8957 B(  4-N ,  5-O ) :   1.6132 B(  4-N ,  6-O ) :   1.5993
B(  5-O ,  6-O ) :   0.2055 B(  7-C ,  8-O ) :   1.7489 B(  7-C ,  9-O ) :   1.8478
B(  7-C , 10-C ) :   0.9324 B( 10-C , 11-H ) :   0.9669 B( 10-C , 12-H ) :   0.9493
B( 10-C , 13-H ) :   0.9585 B( 14-H , 15-O ) :   0.8622 B( 15-O , 16-H ) :   0.8774

Dispersion correction           -0.017568325
FINAL SINGLE POINT ENERGY      -550.075567220155
Dispersion correction            ... done
Dispersion correction           -0.017481550
FINAL SINGLE POINT ENERGY      -550.078970155650
Dispersion correction            ... done
Dispersion correction           -0.017361002
FINAL SINGLE POINT ENERGY      -550.080259838271
Dispersion correction            ... done
FINAL SINGLE POINT ENERGY      -550.081343697060
FINAL SINGLE POINT ENERGY      -550.082219118823
FINAL SINGLE POINT ENERGY      -550.083119101009
FINAL SINGLE POINT ENERGY      -550.084113098203
FINAL SINGLE POINT ENERGY      -550.085156265832
FINAL SINGLE POINT ENERGY      -550.085995034529
FINAL SINGLE POINT ENERGY      -550.086473951858
FINAL SINGLE POINT ENERGY      -550.083412605479
FINAL SINGLE POINT ENERGY      -550.089786112095
FINAL SINGLE POINT ENERGY      -550.087702753822
FINAL SINGLE POINT ENERGY      -550.089870364232
FINAL SINGLE POINT ENERGY      -550.089136445880
FINAL SINGLE POINT ENERGY      -550.089954580540
FINAL SINGLE POINT ENERGY      -550.089953197945
Dispersion correction           -0.016217532
FINAL SINGLE POINT ENERGY      -550.089969158537
Dispersion correction            ... done
Dispersion correction           -0.016217872
FINAL SINGLE POINT ENERGY      -550.089975828028
Dispersion correction            ... done

CARTESIAN COORDINATES (ANGSTROEM)
---------------------------------
  C      0.747946   -1.393713    1.586136
  H      1.388233   -1.475355    0.714790
  H      0.964292   -0.477621    2.134000
  H      0.809165   -2.259804    2.235512
  N     -0.662324   -1.270291    1.114396
  O     -1.543849   -1.761764    1.796139
  O     -0.867094   -0.654015    0.076303
  C      0.155860    2.806020   -3.925253
  O      0.321036    2.578320   -2.687980
  O      0.614222    2.111327   -4.860090
  C     -0.683222    4.039213   -4.269120
  H     -0.717986    4.215038   -5.343755
  H     -0.271548    4.918867   -3.770606
  H     -1.701490    3.902223   -3.896409
  H      0.990821    1.091195   -2.214422
  O      1.317021    0.216383   -1.868758
  H      0.629659   -0.078221   -1.256335

Dispersion correction           -0.016214850
FINAL SINGLE POINT ENERGY      -550.089986509664
Dispersion correction            ... done

DIPOLE MOMENT
-------------
                                X             Y             Z
Electronic contribution:     -3.43991      -6.34250       4.56176
Nuclear contribution   :      2.39548       3.95642       0.00420
                        -----------------------------------------
Total Dipole Moment    :     -1.04442      -2.38608       4.56597
                        -----------------------------------------
Magnitude (a.u.)       :      5.25664
Magnitude (Debye)      :     13.36131

Rotational constants in cm-1:     0.113108     0.011916     0.011301
Rotational constants in MHz :  3390.890038   357.237408   338.791558

                             ****ORCA TERMINATED NORMALLY****
TOTAL RUN TIME: 0 days 0 hours 27 minutes 2 seconds 667 msec
