                         Program Version 5.0.4 -  RELEASE  -
|  1> !  NUMFREQ B3LYP def2-TZVP CPCM D3
|  2> %pal nprocs 102 end
|  3> %cpcm epsilon 78.4 end
|  4> *xyz 0 1
|  5> C   1.07205215650549 0.19798073810576 -0.27497704010147
|  6> H   0.63028293626531 0.9677858080735 0.34854260628356
|  7> N   0.06002501587718 -1.72234945552987 0.87574051613548
|  8> O   -0.74501957584368 -1.22990243552094 1.64471618702646
|  9> O   0.73589739862737 -2.70812380971325 1.12965291123835
| 10> H   2.69751872458075 -0.39268835445276 -1.47526740170704
| 11> C   0.2614746448979 -1.04717996895982 -0.46184601462866
| 12> H   -0.7444604610412 -0.8301974531602 -0.81805711497307
| 13> H   0.76152704194248 -1.77063299246105 -1.0998164138414
| 14> C   2.25070446483815 0.37443458851328 -0.8556014371618
| 15> H   2.8024369796413 1.29828061409241 -0.7332236425855
| 16> C   6.38470366512019 -2.97476581739349 -0.40381026962147
| 17> C   7.64831781816866 -2.48878363201367 -0.07372455738497
| 18> C   7.69947571379139 -1.24510220374899 0.55869475727935
| 19> C   6.52276870767386 -0.56282322898185 0.83194247357344
| 20> C   5.31639880510381 -1.1386906407236 0.45769105629091
| 21> N   5.2469449146324 -2.32256675436519 -0.15096485384861
| 22> H   6.28753488793315 -3.93527976017292 -0.90015346044661
| 23> H   6.53659537548178 0.40213998605886 1.32101267206919
| 24> H   4.37622241458846 -0.64101045132113 0.65196197898938
| 25> C   8.89227189845102 -3.27183182198279 -0.3822915559987
| 26> H   9.40658150624821 -3.5564029308224 0.53903424757821
| 27> H   9.59109840732525 -2.67697865712237 -0.97407873677041
| 28> H   8.65766478441985 -4.18132556825954 -0.93519728336804
| 29> H   8.656520901513 -0.8173116103768 0.83474590273378
| 30> H   2.20539042884407 -3.32489177529413 -0.15655797791178
| 31> O   2.82933550333978 -3.59808794919645 -0.84273634440006
| 32> H   3.66445494107355 -3.11212446327041 -0.63798120444852
| 33> *
| 34>
| 35>                          ****END OF INPUT****

CARTESIAN COORDINATES (ANGSTROEM)
---------------------------------
  C      1.072052    0.197981   -0.274977
  H      0.630283    0.967786    0.348543
  N      0.060025   -1.722349    0.875741
  O     -0.745020   -1.229902    1.644716
  O      0.735897   -2.708124    1.129653
  H      2.697519   -0.392688   -1.475267
  C      0.261475   -1.047180   -0.461846
  H     -0.744460   -0.830197   -0.818057
  H      0.761527   -1.770633   -1.099816
  C      2.250704    0.374435   -0.855601
  H      2.802437    1.298281   -0.733224
  C      6.384704   -2.974766   -0.403810
  C      7.648318   -2.488784   -0.073725
  C      7.699476   -1.245102    0.558695
  C      6.522769   -0.562823    0.831942
  C      5.316399   -1.138691    0.457691
  N      5.246945   -2.322567   -0.150965
  H      6.287535   -3.935280   -0.900153
  H      6.536595    0.402140    1.321013
  H      4.376222   -0.641010    0.651962
  C      8.892272   -3.271832   -0.382292
  H      9.406582   -3.556403    0.539034
  H      9.591098   -2.676979   -0.974079
  H      8.657665   -4.181326   -0.935197
  H      8.656521   -0.817312    0.834746
  H      2.205390   -3.324892   -0.156558
  O      2.829336   -3.598088   -0.842736
  H      3.664455   -3.112124   -0.637981

 Total Charge           Charge          ....    0
 Multiplicity           Mult            ....    1
 Number of Electrons    NEL             ....  106
 Basis Dimension        Dim             ....  518

ORBITAL ENERGIES
----------------

  NO   OCC          E(Eh)            E(eV)
   0   2.0000     -19.180233      -521.9207
   1   2.0000     -19.178503      -521.8736
   2   2.0000     -19.095294      -519.6094
   3   2.0000     -14.562849      -396.2753
   4   2.0000     -14.324946      -389.8016
   5   2.0000     -10.233526      -278.4684
   6   2.0000     -10.207392      -277.7572
   7   2.0000     -10.207054      -277.7481
   8   2.0000     -10.191938      -277.3367
   9   2.0000     -10.191849      -277.3343
  10   2.0000     -10.188379      -277.2399
  11   2.0000     -10.181914      -277.0640
  12   2.0000     -10.178040      -276.9585
  13   2.0000     -10.164981      -276.6032
  14   2.0000      -1.250400       -34.0251
  15   2.0000      -1.077200       -29.3121
  16   2.0000      -0.979103       -26.6427
  17   2.0000      -0.952362       -25.9151
  18   2.0000      -0.844169       -22.9710
  19   2.0000      -0.818207       -22.2646
  20   2.0000      -0.778439       -21.1824
  21   2.0000      -0.759259       -20.6605
  22   2.0000      -0.700587       -19.0640
  23   2.0000      -0.637223       -17.3397
  24   2.0000      -0.634173       -17.2567
  25   2.0000      -0.610934       -16.6243
  26   2.0000      -0.588679       -16.0188
  27   2.0000      -0.560325       -15.2472
  28   2.0000      -0.547011       -14.8849
  29   2.0000      -0.534062       -14.5326
  30   2.0000      -0.527837       -14.3632
  31   2.0000      -0.500317       -13.6143
  32   2.0000      -0.496205       -13.5024
  33   2.0000      -0.479123       -13.0376
  34   2.0000      -0.456570       -12.4239
  35   2.0000      -0.445187       -12.1142
  36   2.0000      -0.429757       -11.6943
  37   2.0000      -0.420241       -11.4353
  38   2.0000      -0.411688       -11.2026
  39   2.0000      -0.406794       -11.0694
  40   2.0000      -0.393205       -10.6996
  41   2.0000      -0.390537       -10.6270
  42   2.0000      -0.372905       -10.1473
  43   2.0000      -0.368393       -10.0245
  44   2.0000      -0.361131        -9.8269
  45   2.0000      -0.338865        -9.2210
  46   2.0000      -0.335824        -9.1382
  47   2.0000      -0.317346        -8.6354
  48   2.0000      -0.296954        -8.0805
  49   2.0000      -0.290842        -7.9142
  50   2.0000      -0.283563        -7.7161
  51   2.0000      -0.273827        -7.4512
  52   2.0000      -0.261909        -7.1269
  53   0.0000      -0.088200        -2.4000
  54   0.0000      -0.040075        -1.0905
  55   0.0000      -0.020750        -0.5646
  56   0.0000      -0.011543        -0.3141
  57   0.0000       0.046850         1.2748

MULLIKEN ATOMIC CHARGES
-----------------------
   0 C :   -0.141680
   1 H :    0.154545
   2 N :    0.464745
   3 O :   -0.335091
   4 O :   -0.368716
   5 H :    0.155536
   6 C :   -0.113371
   7 H :    0.172207
   8 H :    0.161061
   9 C :   -0.313696
  10 H :    0.158105
  11 C :   -0.055987
  12 C :    0.110008
  13 C :   -0.164066
  14 C :   -0.133745
  15 C :   -0.021609
  16 N :   -0.334426
  17 H :    0.147168
  18 H :    0.151647
  19 H :    0.171698
  20 C :   -0.367203
  21 H :    0.137102
  22 H :    0.137212
  23 H :    0.133577
  24 H :    0.154106
  25 H :    0.335702
  26 O :   -0.734825
  27 H :    0.339997
Sum of atomic charges:   -0.0000000

LOEWDIN ATOMIC CHARGES
----------------------
   0 C :   -0.204454
   1 H :    0.149968
   2 N :   -0.041936
   3 O :   -0.037260
   4 O :   -0.048936
   5 H :    0.130848
   6 C :   -0.195999
   7 H :    0.158619
   8 H :    0.148903
   9 C :   -0.175584
  10 H :    0.133582
  11 C :   -0.178374
  12 C :   -0.169048
  13 C :   -0.079794
  14 C :   -0.138133
  15 C :   -0.207810
  16 N :    0.108668
  17 H :    0.145743
  18 H :    0.154556
  19 H :    0.141453
  20 C :   -0.246483
  21 H :    0.135057
  22 H :    0.134364
  23 H :    0.131851
  24 H :    0.157826
  25 H :    0.135295
  26 O :   -0.376460
  27 H :    0.133537

  Mayer bond orders larger than 0.100000
B(  0-C ,  1-H ) :   0.9457 B(  0-C ,  6-C ) :   0.9478 B(  0-C ,  9-C ) :   1.8993
B(  2-N ,  3-O ) :   1.6252 B(  2-N ,  4-O ) :   1.5493 B(  2-N ,  6-C ) :   0.8535
B(  3-O ,  4-O ) :   0.2153 B(  5-H ,  9-C ) :   0.9573 B(  6-C ,  7-H ) :   0.9376
B(  6-C ,  8-H ) :   0.9536 B(  9-C , 10-H ) :   0.9615 B( 11-C , 12-C ) :   1.4130
B( 11-C , 16-N ) :   1.4050 B( 11-C , 17-H ) :   0.9544 B( 12-C , 13-C ) :   1.3660
B( 12-C , 20-C ) :   0.9234 B( 13-C , 14-C ) :   1.4372 B( 13-C , 24-H ) :   0.9649
B( 14-C , 15-C ) :   1.4144 B( 14-C , 18-H ) :   0.9633 B( 15-C , 16-N ) :   1.3939
B( 15-C , 19-H ) :   0.9439 B( 16-N , 27-H ) :   0.1464 B( 20-C , 21-H ) :   0.9586
B( 20-C , 22-H ) :   0.9641 B( 20-C , 23-H ) :   0.9857 B( 25-H , 26-O ) :   0.8742
B( 26-O , 27-H ) :   0.8050

Dispersion correction           -0.043831921
FINAL SINGLE POINT ENERGY      -686.407445442006
Dispersion correction            ... done

DIPOLE MOMENT
-------------
                                X             Y             Z
Electronic contribution:    -10.29398       0.39283       5.28182
Nuclear contribution   :     12.40244       1.71372      -5.73161
                        -----------------------------------------
Total Dipole Moment    :      2.10846       2.10655      -0.44979
                        -----------------------------------------
Magnitude (a.u.)       :      3.01421
Magnitude (Debye)      :      7.66151

VIBRATIONAL FREQUENCIES
-----------------------

Scaling factor for frequencies =  1.000000000 (already applied!)

   0:         0.00 cm**-1
   1:         0.00 cm**-1
   2:         0.00 cm**-1
   3:         0.00 cm**-1
   4:         0.00 cm**-1
   5:         0.00 cm**-1
   6:        -9.71 cm**-1 ***imaginary mode***
   7:         5.81 cm**-1
   8:        29.13 cm**-1
   9:        31.19 cm**-1
  10:        43.55 cm**-1
  11:        50.13 cm**-1
  12:        51.55 cm**-1
  13:        59.51 cm**-1
  14:        66.58 cm**-1
  15:        99.64 cm**-1
  16:       127.29 cm**-1
  17:       174.46 cm**-1
  18:       214.98 cm**-1
  19:       247.42 cm**-1
  20:       342.08 cm**-1
  21:       397.18 cm**-1
  22:       411.68 cm**-1
  23:       468.70 cm**-1
  24:       472.15 cm**-1
  25:       482.82 cm**-1
  26:       503.31 cm**-1
  27:       546.11 cm**-1
  28:       588.10 cm**-1
  29:       650.10 cm**-1
  30:       656.23 cm**-1
  31:       724.10 cm**-1
  32:       735.26 cm**-1
  33:       794.27 cm**-1
  34:       810.66 cm**-1
  35:       823.58 cm**-1
  36:       916.87 cm**-1
  37:       941.34 cm**-1
  38:       947.27 cm**-1
  39:       967.90 cm**-1
  40:       979.50 cm**-1
  41:       990.87 cm**-1
  42:      1008.26 cm**-1
  43:      1018.06 cm**-1
  44:      1030.16 cm**-1
  45:      1057.39 cm**-1
  46:      1069.56 cm**-1
  47:      1073.78 cm**-1
  48:      1141.50 cm**-1
  49:      1158.13 cm**-1
  50:      1214.58 cm**-1
  51:      1236.57 cm**-1
  52:      1252.54 cm**-1
  53:      1289.66 cm**-1
  54:      1318.29 cm**-1
  55:      1339.16 cm**-1
  56:      1371.59 cm**-1
  57:      1409.77 cm**-1
  58:      1418.62 cm**-1
  59:      1445.16 cm**-1
  60:      1453.10 cm**-1
  61:      1467.76 cm**-1
  62:      1468.56 cm**-1
  63:      1485.97 cm**-1
  64:      1515.69 cm**-1
  65:      1570.80 cm**-1
  66:      1617.34 cm**-1
  67:      1634.19 cm**-1
  68:      1644.77 cm**-1
  69:      1702.84 cm**-1
  70:      3031.51 cm**-1
  71:      3080.49 cm**-1
  72:      3088.99 cm**-1
  73:      3109.29 cm**-1
  74:      3142.79 cm**-1
  75:      3149.15 cm**-1
  76:      3157.46 cm**-1
  77:      3168.13 cm**-1
  78:      3171.26 cm**-1
  79:      3187.46 cm**-1
  80:      3200.53 cm**-1
  81:      3230.05 cm**-1
  82:      3309.62 cm**-1
  83:      3744.35 cm**-1

IR SPECTRUM
-----------

 Mode   freq       eps      Int      T**2         TX        TY        TZ
       cm**-1   L/(mol*cm) km/mol    a.u.
----------------------------------------------------------------------------
  7:      5.81   0.000259    1.31  0.013923  (-0.051314 -0.073396  0.076833)
  8:     29.13   0.000184    0.93  0.001973  (-0.033082  0.027788 -0.010328)
  9:     31.19   0.000939    4.74  0.009392  (-0.004429  0.096561 -0.006918)
 10:     43.55   0.000012    0.06  0.000085  ( 0.003031 -0.004391 -0.007522)
 11:     50.13   0.000182    0.92  0.001134  (-0.016166 -0.026336 -0.013383)
 12:     51.55   0.000048    0.24  0.000289  ( 0.009642  0.014007  0.000225)
 13:     59.51   0.000326    1.65  0.001711  (-0.014535 -0.038229  0.006217)
 14:     66.58   0.005417   27.37  0.025388  (-0.102777  0.115379 -0.038896)
 15:     99.64   0.000262    1.32  0.000819  ( 0.003146  0.027922 -0.005453)
 16:    127.29   0.000916    4.63  0.002245  ( 0.024011 -0.040748  0.002810)
 17:    174.46   0.001289    6.51  0.002305  ( 0.045109  0.012965  0.010120)
 18:    214.98   0.000461    2.33  0.000669  ( 0.000258 -0.010596  0.023585)
 19:    247.42   0.001492    7.54  0.001882  ( 0.031850  0.029198  0.003850)
 20:    342.08   0.000069    0.35  0.000063  (-0.007241 -0.001156 -0.003061)
 21:    397.18   0.000535    2.71  0.000421  ( 0.013861 -0.007567  0.013085)
 22:    411.68   0.000217    1.10  0.000164  ( 0.007811 -0.000661  0.010150)
 23:    468.70   0.022971  116.09  0.015294  ( 0.007770 -0.098874  0.073876)
 24:    472.15   0.018822   95.12  0.012440  (-0.058674  0.087831 -0.035828)
 25:    482.82   0.000950    4.80  0.000614  (-0.000777 -0.015641  0.019204)
 26:    503.31   0.018194   91.95  0.011281  ( 0.101840  0.012543 -0.027425)
 27:    546.11   0.000180    0.91  0.000103  ( 0.006403  0.005915  0.005164)
 28:    588.10   0.000952    4.81  0.000505  ( 0.021447  0.006262 -0.002465)
 29:    650.10   0.009020   45.58  0.004330  ( 0.008717 -0.020259  0.061995)
 30:    656.23   0.003417   17.27  0.001625  (-0.034883 -0.018190 -0.008798)
 31:    724.10   0.010037   50.72  0.004326  (-0.052305  0.036135 -0.016850)
 32:    735.26   0.032699  165.25  0.013878  ( 0.037056 -0.066294  0.090058)
 33:    794.27   0.007149   36.13  0.002809  (-0.005413 -0.028689  0.044232)
 34:    810.66   0.004609   23.29  0.001774  (-0.003708 -0.014426  0.039401)
 35:    823.58   0.001934    9.77  0.000733  (-0.025491 -0.004827 -0.007727)
 36:    916.87   0.002359   11.92  0.000803  ( 0.012352  0.011938 -0.022538)
 37:    941.34   0.000414    2.09  0.000137  (-0.000715  0.011632  0.001195)
 38:    947.27   0.000064    0.32  0.000021  ( 0.002130  0.000619 -0.004014)
 39:    967.90   0.000267    1.35  0.000086  ( 0.007936 -0.001955  0.004376)
 40:    979.50   0.003314   16.75  0.001056  ( 0.007287 -0.013113  0.028821)
 41:    990.87   0.012800   64.69  0.004031  ( 0.029500 -0.026094  0.049802)
 42:   1008.26   0.000042    0.21  0.000013  ( 0.003576  0.000452  0.000102)
 43:   1018.06   0.000034    0.17  0.000010  ( 0.001632  0.001421 -0.002387)
 44:   1030.16   0.004860   24.56  0.001472  (-0.015245  0.018014 -0.030254)
 45:   1057.39   0.003216   16.25  0.000949  (-0.026559 -0.014195 -0.006493)
 46:   1069.56   0.001692    8.55  0.000494  (-0.006003  0.010331 -0.018731)
 47:   1073.78   0.002182   11.03  0.000634  (-0.023895 -0.007514 -0.002579)
 48:   1141.50   0.005577   28.18  0.001525  (-0.029874 -0.021474 -0.013073)
 49:   1158.13   0.003795   19.18  0.001023  ( 0.023798 -0.012915 -0.017012)
 50:   1214.58   0.005057   25.56  0.001299  ( 0.035523  0.003816  0.004786)
 51:   1236.57   0.011048   55.83  0.002788  ( 0.037318 -0.037273 -0.002476)
 52:   1252.54   0.000520    2.63  0.000130  ( 0.010410 -0.004546 -0.000731)
 53:   1289.66   0.001670    8.44  0.000404  (-0.009708  0.015665  0.008024)
 54:   1318.29   0.000744    3.76  0.000176  ( 0.006878  0.006085 -0.009580)
 55:   1339.16   0.001153    5.83  0.000269  (-0.005140 -0.001192  0.015519)
 56:   1371.59   0.000437    2.21  0.000100  (-0.009205  0.003666  0.001153)
 57:   1409.77   0.000334    1.69  0.000074  ( 0.008261 -0.002319  0.000611)
 58:   1418.62   0.024885  125.76  0.005474  (-0.006786 -0.041288  0.061019)
 59:   1445.16   0.004632   23.41  0.001000  (-0.024581  0.018795  0.006533)
 60:   1453.10   0.007603   38.42  0.001633  (-0.014776 -0.024645  0.028408)
 61:   1467.76   0.004616   23.33  0.000981  (-0.010642 -0.027999 -0.009181)
 62:   1468.56   0.002294   11.60  0.000488  (-0.000916 -0.009994  0.019668)
 63:   1485.97   0.007540   38.10  0.001583  ( 0.008540 -0.035235 -0.016402)
 64:   1515.69   0.004751   24.01  0.000978  (-0.027585  0.014185  0.004010)
 65:   1570.80   0.141087  712.99  0.028029  ( 0.121262 -0.106557 -0.044388)
 66:   1617.34   0.004148   20.96  0.000800  ( 0.025167  0.012152  0.004401)
 67:   1634.19   0.007504   37.92  0.001433  ( 0.018671  0.026233  0.019904)
 68:   1644.77   0.020129  101.72  0.003819  (-0.004147 -0.042526 -0.044649)
 69:   1702.84   0.000740    3.74  0.000136  ( 0.009814  0.006011 -0.001773)
 70:   3031.51   0.004974   25.14  0.000512  (-0.019840  0.010651  0.002222)
 71:   3080.49   0.003057   15.45  0.000310  ( 0.003316  0.005911 -0.016239)
 72:   3088.99   0.000335    1.69  0.000034  (-0.004790 -0.002648 -0.001961)
 73:   3109.29   0.003907   19.74  0.000392  (-0.005696 -0.017027 -0.008352)
 74:   3142.79   0.000693    3.50  0.000069  ( 0.007561 -0.000973 -0.003276)
 75:   3149.15   0.004781   24.16  0.000474  ( 0.011493 -0.016625 -0.008081)
 76:   3157.46   0.000572    2.89  0.000057  ( 0.002915 -0.006736  0.001629)
 77:   3168.13   0.001911    9.66  0.000188  ( 0.013330  0.002487  0.002082)
 78:   3171.26   0.000330    1.67  0.000032  (-0.002593 -0.003286 -0.003865)
 79:   3187.46   0.000303    1.53  0.000030  (-0.003950  0.003149  0.002036)
 80:   3200.53   0.004152   20.98  0.000405  (-0.001828 -0.017644 -0.009494)
 81:   3230.05   0.000668    3.37  0.000065  (-0.000075  0.007201  0.003557)
 82:   3309.62   0.344210  1739.50  0.032455  ( 0.161779  0.070597  0.036045)
 83:   3744.35   0.078575  397.09  0.006549  (-0.068341  0.022998  0.036732)

--------------------------
THERMOCHEMISTRY AT 298.15K
--------------------------

Temperature         ... 298.15 K
Pressure            ... 1.00 atm
Total Mass          ... 198.22 AMU

Throughout the following assumptions are being made:
  (1) The electronic state is orbitally nondegenerate
  (2) There are no thermally accessible electronically excited states
  (3) Hindered rotations indicated by low frequency modes are not
      treated as such but are treated as vibrations and this may
      cause some error
  (4) All equations used are the standard statistical mechanics
      equations for an ideal gas
  (5) All vibrations are strictly harmonic

freq.       5.81  E(vib)   ...       0.58
freq.      29.13  E(vib)   ...       0.55
freq.      31.19  E(vib)   ...       0.55
freq.      43.55  E(vib)   ...       0.53
freq.      50.13  E(vib)   ...       0.52
freq.      51.55  E(vib)   ...       0.52
freq.      59.51  E(vib)   ...       0.51
freq.      66.58  E(vib)   ...       0.50
freq.      99.64  E(vib)   ...       0.46
freq.     127.29  E(vib)   ...       0.43
freq.     174.46  E(vib)   ...       0.38
freq.     214.98  E(vib)   ...       0.34
freq.     247.42  E(vib)   ...       0.31
freq.     342.08  E(vib)   ...       0.23
freq.     397.18  E(vib)   ...       0.20
freq.     411.68  E(vib)   ...       0.19
freq.     468.70  E(vib)   ...       0.16
freq.     472.15  E(vib)   ...       0.15
freq.     482.82  E(vib)   ...       0.15
freq.     503.31  E(vib)   ...       0.14
freq.     546.11  E(vib)   ...       0.12
freq.     588.10  E(vib)   ...       0.10
freq.     650.10  E(vib)   ...       0.08
freq.     656.23  E(vib)   ...       0.08
freq.     724.10  E(vib)   ...       0.06
freq.     735.26  E(vib)   ...       0.06
freq.     794.27  E(vib)   ...       0.05
freq.     810.66  E(vib)   ...       0.05
freq.     823.58  E(vib)   ...       0.05
freq.     916.87  E(vib)   ...       0.03
freq.     941.34  E(vib)   ...       0.03
freq.     947.27  E(vib)   ...       0.03
freq.     967.90  E(vib)   ...       0.03
freq.     979.50  E(vib)   ...       0.03
freq.     990.87  E(vib)   ...       0.02
freq.    1008.26  E(vib)   ...       0.02
freq.    1018.06  E(vib)   ...       0.02
freq.    1030.16  E(vib)   ...       0.02
freq.    1057.39  E(vib)   ...       0.02
freq.    1069.56  E(vib)   ...       0.02
freq.    1073.78  E(vib)   ...       0.02
freq.    1141.50  E(vib)   ...       0.01
freq.    1158.13  E(vib)   ...       0.01
freq.    1214.58  E(vib)   ...       0.01
freq.    1236.57  E(vib)   ...       0.01
freq.    1252.54  E(vib)   ...       0.01
freq.    1289.66  E(vib)   ...       0.01
freq.    1318.29  E(vib)   ...       0.01
freq.    1339.16  E(vib)   ...       0.01
freq.    1371.59  E(vib)   ...       0.01
freq.    1409.77  E(vib)   ...       0.00
freq.    1418.62  E(vib)   ...       0.00
freq.    1445.16  E(vib)   ...       0.00
freq.    1453.10  E(vib)   ...       0.00
freq.    1467.76  E(vib)   ...       0.00
freq.    1468.56  E(vib)   ...       0.00
freq.    1485.97  E(vib)   ...       0.00
freq.    1515.69  E(vib)   ...       0.00
freq.    1570.80  E(vib)   ...       0.00
freq.    1617.34  E(vib)   ...       0.00
freq.    1634.19  E(vib)   ...       0.00
freq.    1644.77  E(vib)   ...       0.00
freq.    1702.84  E(vib)   ...       0.00
freq.    3031.51  E(vib)   ...       0.00
freq.    3080.49  E(vib)   ...       0.00
freq.    3088.99  E(vib)   ...       0.00
freq.    3109.29  E(vib)   ...       0.00
freq.    3142.79  E(vib)   ...       0.00
freq.    3149.15  E(vib)   ...       0.00
freq.    3157.46  E(vib)   ...       0.00
freq.    3168.13  E(vib)   ...       0.00
freq.    3171.26  E(vib)   ...       0.00
freq.    3187.46  E(vib)   ...       0.00
freq.    3200.53  E(vib)   ...       0.00
freq.    3230.05  E(vib)   ...       0.00
freq.    3309.62  E(vib)   ...       0.00
freq.    3744.35  E(vib)   ...       0.00

------------
INNER ENERGY
------------

The inner energy is: U= E(el) + E(ZPE) + E(vib) + E(rot) + E(trans)
    E(el)   - is the total energy from the electronic structure calculation
              = E(kin-el) + E(nuc-el) + E(el-el) + E(nuc-nuc)
    E(ZPE)  - the the zero temperature vibrational energy from the frequency calculation
    E(vib)  - the the finite temperature correction to E(ZPE) due to population
              of excited vibrational states
    E(rot)  - is the rotational thermal energy
    E(trans)- is the translational thermal energy

Summary of contributions to the inner energy U:
Electronic energy                ...   -686.40744544 Eh
Zero point energy                ...      0.22448202 Eh     140.86 kcal/mol
Thermal vibrational correction   ...      0.01348847 Eh       8.46 kcal/mol
Thermal rotational correction    ...      0.00141627 Eh       0.89 kcal/mol
Thermal translational correction ...      0.00141627 Eh       0.89 kcal/mol
-----------------------------------------------------------------------
Total thermal energy                   -686.16664242 Eh

Summary of corrections to the electronic energy:
(perhaps to be used in another calculation)
Total thermal correction                  0.01632101 Eh      10.24 kcal/mol
Non-thermal (ZPE) correction              0.22448202 Eh     140.86 kcal/mol
-----------------------------------------------------------------------
Total correction                          0.24080303 Eh     151.11 kcal/mol

--------
ENTHALPY
--------

The enthalpy is H = U + kB*T
                kB is Boltzmann's constant
Total free energy                 ...   -686.16664242 Eh
Thermal Enthalpy correction       ...      0.00094421 Eh       0.59 kcal/mol
-----------------------------------------------------------------------
Total Enthalpy                    ...   -686.16569821 Eh

Note: Only C1 symmetry has been detected, increase convergence thresholds
      if your molecule has a higher symmetry. Symmetry factor of 1.0 is
      used for the rotational entropy correction.

Note: Rotational entropy computed according to Herzberg
Infrared and Raman Spectra, Chapter V,1, Van Nostrand Reinhold, 1945
Point Group:  C1, Symmetry Number:   1
Rotational constants in cm-1:     0.043420     0.007718     0.007185

Vibrational entropy computed according to the QRRHO of S. Grimme
Chem.Eur.J. 2012 18 9955

-------
ENTROPY
-------

The entropy contributions are T*S = T*(S(el)+S(vib)+S(rot)+S(trans))
     S(el)   - electronic entropy
     S(vib)  - vibrational entropy
     S(rot)  - rotational entropy
     S(trans)- translational entropy

                             ****ORCA TERMINATED NORMALLY****
TOTAL RUN TIME: 0 days 0 hours 26 minutes 1 seconds 528 msec
