                         Program Version 5.0.4 -  RELEASE  -
|  1> !  NUMFREQ B3LYP def2-TZVP CPCM D3
|  2> %pal nprocs 102 end
|  3> %cpcm epsilon 78.4 end
|  4> *xyz 0 2
|  5> C   -0.64061149055456 0.865799226621 1.22299414150674
|  6> C   0.72316479190613 0.93207989551665 1.48798065609296
|  7> C   1.54324507471828 -0.17865549388634 1.28957924687211
|  8> C   0.98999651316959 -1.36212543999093 0.81382055802429
|  9> C   -0.37124646445733 -1.40413152210053 0.55068182848699
| 10> C   -1.20305425638328 -0.30886014213418 0.74842999096323
| 11> H   -1.26650078029364 1.73225600112583 1.38772978741308
| 12> H   1.16120329427265 1.84643972130891 1.86536124735354
| 13> H   1.59471956532111 -2.2393864456827 0.64341135607726
| 14> H   -2.25865792696004 -0.38197538169953 0.53634891221349
| 15> N   -0.95284119398747 -2.65477360527667 0.04922479294484
| 16> O   -2.15435806673566 -2.67988870981037 -0.18456353334375
| 17> O   -0.21235490772365 -3.6163006762318 -0.11214909745569
| 18> C   3.0199055079847 -0.07492703223113 1.6004026599949
| 19> C   3.57714852726913 -1.20123068995938 2.44691318407335
| 20> H   4.64477590526352 -1.06087360062225 2.6145464454003
| 21> H   3.41465639178641 -2.17528277236605 1.9908793309433
| 22> H   3.06946609411125 -1.17723468557584 3.41124981259401
| 23> N   3.75485769954716 0.00217144220453 0.25359835227709
| 24> O   3.85584961578945 1.10524779564313 -0.25740482097554
| 25> O   4.16889773023052 -1.02822682760937 -0.2475081594592
| 26> H   3.21865331937405 0.8972674913562 2.04642641666374
| 27> C   0.92044010758138 0.37585562207076 6.33172517151781
| 28> C   2.07411458969527 -0.30286009491304 6.98519552109857
| 29> C   3.28794437797893 0.63409411375898 7.09690828612624
| 30> C   3.54456704123443 1.3524742703004 5.77314815729982
| 31> N   2.37175141665663 2.09465732353386 5.28231062323265
| 32> C   1.18962068064691 1.21890991023128 5.13395289652617
| 33> H   -0.09469086401349 0.06594083260577 6.54748251501712
| 34> H   1.79639320987587 -0.69674975915962 7.96523748451402
| 35> H   2.3736724635583 -1.17602860751074 6.37910098804926
| 36> H   4.17667941776429 0.07115596537933 7.39311815843153
| 37> H   3.10075329200203 1.3815883802059 7.87429439415422
| 38> H   4.37495222789214 2.05433886092044 5.86898253712981
| 39> H   3.81743134439196 0.62597933072934 5.00202826057891
| 40> H   2.14704097452457 2.82213504672688 5.95570303035248
| 41> H   0.32944642930553 1.83934477655973 4.877383852416
| 42> H   1.38105484028119 0.57901457165993 4.25924172953353
| 43> H   2.84636139790434 2.79057101730688 3.73415479130151
| 44> H   2.59803779108867 3.77013746438367 2.53938836393905
| 45> O   3.20346772798256 3.08541869661104 2.84688762012001
| 46> *
| 47>
| 48>                          ****END OF INPUT****

CARTESIAN COORDINATES (ANGSTROEM)
---------------------------------
  C     -0.640611    0.865799    1.222994
  C      0.723165    0.932080    1.487981
  C      1.543245   -0.178655    1.289579
  C      0.989997   -1.362125    0.813821
  C     -0.371246   -1.404132    0.550682
  C     -1.203054   -0.308860    0.748430
  H     -1.266501    1.732256    1.387730
  H      1.161203    1.846440    1.865361
  H      1.594720   -2.239386    0.643411
  H     -2.258658   -0.381975    0.536349
  N     -0.952841   -2.654774    0.049225
  O     -2.154358   -2.679889   -0.184564
  O     -0.212355   -3.616301   -0.112149
  C      3.019906   -0.074927    1.600403
  C      3.577149   -1.201231    2.446913
  H      4.644776   -1.060874    2.614546
  H      3.414656   -2.175283    1.990879
  H      3.069466   -1.177235    3.411250
  N      3.754858    0.002171    0.253598
  O      3.855850    1.105248   -0.257405
  O      4.168898   -1.028227   -0.247508
  H      3.218653    0.897267    2.046426
  C      0.920440    0.375856    6.331725
  C      2.074115   -0.302860    6.985196
  C      3.287944    0.634094    7.096908
  C      3.544567    1.352474    5.773148
  N      2.371751    2.094657    5.282311
  C      1.189621    1.218910    5.133953
  H     -0.094691    0.065941    6.547483
  H      1.796393   -0.696750    7.965237
  H      2.373672   -1.176029    6.379101
  H      4.176679    0.071156    7.393118
  H      3.100753    1.381588    7.874294
  H      4.374952    2.054339    5.868983
  H      3.817431    0.625979    5.002028
  H      2.147041    2.822135    5.955703
  H      0.329446    1.839345    4.877384
  H      1.381055    0.579015    4.259242
  H      2.846361    2.790571    3.734155
  H      2.598038    3.770137    2.539388
  O      3.203468    3.085419    2.846888

 Total Charge           Charge          ....    0
 Multiplicity           Mult            ....    2
 Number of Electrons    NEL             ....  159
 Basis Dimension        Dim             ....  771

ORBITAL ENERGIES
----------------
                 SPIN UP ORBITALS
  NO   OCC          E(Eh)            E(eV)
   0   1.0000     -19.174235      -521.7575
   1   1.0000     -19.172351      -521.7062
   2   1.0000     -19.171041      -521.6706
   3   1.0000     -19.170935      -521.6677
   4   1.0000     -19.098502      -519.6967
   5   1.0000     -14.564365      -396.3165
   6   1.0000     -14.554978      -396.0611
   7   1.0000     -14.309650      -389.3854
   8   1.0000     -10.242782      -278.7203
   9   1.0000     -10.238703      -278.6093
  10   1.0000     -10.210628      -277.8453
  11   1.0000     -10.204850      -277.6881
  12   1.0000     -10.202670      -277.6288
  13   1.0000     -10.197470      -277.4873
  14   1.0000     -10.193876      -277.3895
  15   1.0000     -10.190074      -277.2860
  16   1.0000     -10.186270      -277.1825
  17   1.0000     -10.171316      -276.7756
  18   1.0000     -10.169464      -276.7252
  19   1.0000     -10.163289      -276.5572
  20   1.0000     -10.159318      -276.4491
  21   1.0000      -1.244694       -33.8698
  22   1.0000      -1.243898       -33.8482
  23   1.0000      -1.071189       -29.1485
  24   1.0000      -1.069263       -29.0961
  25   1.0000      -0.979896       -26.6643
  26   1.0000      -0.914549       -24.8862
  27   1.0000      -0.902677       -24.5631
  28   1.0000      -0.850472       -23.1425
  29   1.0000      -0.807384       -21.9700
  30   1.0000      -0.783435       -21.3184
  31   1.0000      -0.765635       -20.8340
  32   1.0000      -0.749677       -20.3997
  33   1.0000      -0.712313       -19.3830
  34   1.0000      -0.702940       -19.1280
  35   1.0000      -0.645745       -17.5716
  36   1.0000      -0.640557       -17.4304
  37   1.0000      -0.616289       -16.7701
  38   1.0000      -0.610498       -16.6125
  39   1.0000      -0.593450       -16.1486
  40   1.0000      -0.575011       -15.6468
  41   1.0000      -0.558467       -15.1967
  42   1.0000      -0.551079       -14.9956
  43   1.0000      -0.549702       -14.9581
  44   1.0000      -0.539830       -14.6895
  45   1.0000      -0.531606       -14.4657
  46   1.0000      -0.525722       -14.3056
  47   1.0000      -0.512374       -13.9424
  48   1.0000      -0.508872       -13.8471
  49   1.0000      -0.492292       -13.3960
  50   1.0000      -0.486258       -13.2317
  51   1.0000      -0.455265       -12.3884
  52   1.0000      -0.454353       -12.3636
  53   1.0000      -0.451729       -12.2922
  54   1.0000      -0.443366       -12.0646
  55   1.0000      -0.430267       -11.7082
  56   1.0000      -0.419256       -11.4085
  57   1.0000      -0.410940       -11.1822
  58   1.0000      -0.407326       -11.0839
  59   1.0000      -0.396293       -10.7837
  60   1.0000      -0.392850       -10.6900
  61   1.0000      -0.388057       -10.5596
  62   1.0000      -0.384084       -10.4515
  63   1.0000      -0.374254       -10.1840
  64   1.0000      -0.368795       -10.0354
  65   1.0000      -0.366047        -9.9606
  66   1.0000      -0.349047        -9.4981
  67   1.0000      -0.334397        -9.0994
  68   1.0000      -0.333941        -9.0870
  69   1.0000      -0.333027        -9.0621
  70   1.0000      -0.331025        -9.0076
  71   1.0000      -0.323245        -8.7959
  72   1.0000      -0.322110        -8.7651
  73   1.0000      -0.312375        -8.5002
  74   1.0000      -0.310958        -8.4616
  75   1.0000      -0.295013        -8.0277
  76   1.0000      -0.286510        -7.7963
  77   1.0000      -0.278694        -7.5836
  78   1.0000      -0.242040        -6.5862
  79   1.0000      -0.189270        -5.1503
  80   0.0000      -0.105441        -2.8692
  81   0.0000      -0.083183        -2.2635
  82   0.0000      -0.037765        -1.0276
  83   0.0000      -0.009174        -0.2496
  84   0.0000       0.030033         0.8172

                 SPIN DOWN ORBITALS
  NO   OCC          E(Eh)            E(eV)
   0   1.0000     -19.174233      -521.7574
   1   1.0000     -19.172350      -521.7062
   2   1.0000     -19.171037      -521.6704
   3   1.0000     -19.170927      -521.6675
   4   1.0000     -19.098467      -519.6957
   5   1.0000     -14.564364      -396.3165
   6   1.0000     -14.554978      -396.0611
   7   1.0000     -14.309032      -389.3686
   8   1.0000     -10.242771      -278.7200
   9   1.0000     -10.238699      -278.6092
  10   1.0000     -10.210619      -277.8451
  11   1.0000     -10.204847      -277.6880
  12   1.0000     -10.202676      -277.6289
  13   1.0000     -10.197474      -277.4874
  14   1.0000     -10.193865      -277.3892
  15   1.0000     -10.190881      -277.3080
  16   1.0000     -10.186305      -277.1835
  17   1.0000     -10.171299      -276.7751
  18   1.0000     -10.164011      -276.5768
  19   1.0000     -10.158816      -276.4354
  20   1.0000     -10.155824      -276.3540
  21   1.0000      -1.244686       -33.8696
  22   1.0000      -1.243896       -33.8481
  23   1.0000      -1.071187       -29.1485
  24   1.0000      -1.069252       -29.0958
  25   1.0000      -0.979802       -26.6618
  26   1.0000      -0.912341       -24.8261
  27   1.0000      -0.902662       -24.5627
  28   1.0000      -0.850458       -23.1421
  29   1.0000      -0.807369       -21.9696
  30   1.0000      -0.776006       -21.1162
  31   1.0000      -0.765619       -20.8335
  32   1.0000      -0.740332       -20.1455
  33   1.0000      -0.712299       -19.3826
  34   1.0000      -0.702914       -19.1272
  35   1.0000      -0.645735       -17.5713
  36   1.0000      -0.638508       -17.3747
  37   1.0000      -0.610490       -16.6123
  38   1.0000      -0.607663       -16.5354
  39   1.0000      -0.593439       -16.1483
  40   1.0000      -0.575004       -15.6466
  41   1.0000      -0.551326       -15.0024
  42   1.0000      -0.550204       -14.9718
  43   1.0000      -0.546790       -14.8789
  44   1.0000      -0.539728       -14.6867
  45   1.0000      -0.531599       -14.4655
  46   1.0000      -0.525684       -14.3046
  47   1.0000      -0.512363       -13.9421
  48   1.0000      -0.508102       -13.8261
  49   1.0000      -0.490268       -13.3409
  50   1.0000      -0.486228       -13.2309
  51   1.0000      -0.455236       -12.3876
  52   1.0000      -0.452324       -12.3084
  53   1.0000      -0.450872       -12.2688
  54   1.0000      -0.439358       -11.9555
  55   1.0000      -0.420967       -11.4551
  56   1.0000      -0.419186       -11.4066
  57   1.0000      -0.410335       -11.1658
  58   1.0000      -0.401790       -10.9333
  59   1.0000      -0.396043       -10.7769
  60   1.0000      -0.392707       -10.6861
  61   1.0000      -0.384097       -10.4518
  62   1.0000      -0.383153       -10.4261
  63   1.0000      -0.373039       -10.1509
  64   1.0000      -0.367948       -10.0124
  65   1.0000      -0.364764        -9.9257
  66   1.0000      -0.347269        -9.4497
  67   1.0000      -0.333941        -9.0870
  68   1.0000      -0.332992        -9.0612
  69   1.0000      -0.331104        -9.0098
  70   1.0000      -0.330883        -9.0038
  71   1.0000      -0.323161        -8.7937
  72   1.0000      -0.319024        -8.6811
  73   1.0000      -0.312359        -8.4997
  74   1.0000      -0.310937        -8.4610
  75   1.0000      -0.294973        -8.0266
  76   1.0000      -0.286386        -7.7930
  77   1.0000      -0.278627        -7.5818
  78   1.0000      -0.239140        -6.5073
  79   0.0000      -0.105509        -2.8711
  80   0.0000      -0.083179        -2.2634
  81   0.0000      -0.051896        -1.4121
  82   0.0000      -0.037239        -1.0133
  83   0.0000      -0.008997        -0.2448

MULLIKEN ATOMIC CHARGES AND SPIN POPULATIONS
--------------------------------------------
   0 C :   -0.098133    0.000682
   1 C :   -0.172690    0.001035
   2 C :    0.109074   -0.001022
   3 C :   -0.217879    0.000622
   4 C :    0.120085    0.000511
   5 C :   -0.183532   -0.000374
   6 H :    0.158177   -0.000043
   7 H :    0.116324   -0.000343
   8 H :    0.172622    0.000001
   9 H :    0.170696    0.000019
  10 N :    0.457449    0.000036
  11 O :   -0.353409    0.000276
  12 O :   -0.352290    0.000153
  13 C :    0.048675    0.001099
  14 C :   -0.382749    0.000385
  15 H :    0.145622    0.000026
  16 H :    0.149127    0.000029
  17 H :    0.151114   -0.000470
  18 N :    0.433518   -0.000056
  19 O :   -0.349098    0.000027
  20 O :   -0.340201    0.000042
  21 H :    0.161996    0.000447
  22 C :   -0.226035    0.987172
  23 C :   -0.140086   -0.066729
  24 C :   -0.177778    0.018128
  25 C :   -0.116420   -0.007853
  26 N :   -0.388626    0.017956
  27 C :   -0.087667   -0.059291
  28 H :    0.133649   -0.039371
  29 H :    0.111194    0.006388
  30 H :    0.096711    0.065505
  31 H :    0.098865    0.001913
  32 H :    0.092457    0.004353
  33 H :    0.120023    0.000884
  34 H :    0.117230    0.001741
  35 H :    0.216416    0.004858
  36 H :    0.123393    0.007780
  37 H :    0.116203    0.052256
  38 H :    0.344976    0.000479
  39 H :    0.336278    0.000101
  40 O :   -0.715280    0.000646
Sum of atomic charges         :    0.0000000

LOEWDIN ATOMIC CHARGES AND SPIN POPULATIONS
-------------------------------------------
   0 C :   -0.108869    0.000513
   1 C :   -0.068709    0.000820
   2 C :   -0.123195    0.000872
   3 C :   -0.045782    0.000352
   4 C :   -0.151070    0.000468
   5 C :   -0.077440   -0.000108
   6 H :    0.159329    0.000002
   7 H :    0.156969    0.000144
   8 H :    0.165765    0.000004
   9 H :    0.162580    0.000001
  10 N :   -0.012933    0.000115
  11 O :   -0.048429    0.000257
  12 O :   -0.048646    0.000141
  13 C :   -0.204624    0.000731
  14 C :   -0.263682    0.000983
  15 H :    0.133373    0.000018
  16 H :    0.129811    0.000029
  17 H :    0.136543    0.000969
  18 N :   -0.030008    0.000042
  19 O :   -0.048603    0.000028
  20 O :   -0.037013    0.000062
  21 H :    0.167218    0.000185
  22 C :   -0.140578    0.739118
  23 C :   -0.273733    0.063887
  24 C :   -0.258483    0.015917
  25 C :   -0.296958    0.001829
  26 N :    0.005646    0.016704
  27 C :   -0.313591    0.065363
  28 H :    0.125526    0.002393
  29 H :    0.139412    0.004052
  30 H :    0.146615    0.039844
  31 H :    0.135484    0.000757
  32 H :    0.134317    0.001174
  33 H :    0.132126    0.000952
  34 H :    0.135723    0.000606
  35 H :    0.176248    0.002351
  36 H :    0.138284    0.005003
  37 H :    0.144139    0.032002
  38 H :    0.133380    0.000561
  39 H :    0.153703    0.000059
  40 O :   -0.359844    0.000802

  Mayer bond orders larger than 0.100000
B(  0-C ,  1-C ) :   1.3978 B(  0-C ,  5-C ) :   1.4066 B(  0-C ,  6-H ) :   0.9750
B(  1-C ,  2-C ) :   1.3435 B(  1-C ,  7-H ) :   0.9372 B(  2-C ,  3-C ) :   1.3825
B(  2-C , 13-C ) :   0.9073 B(  3-C ,  4-C ) :   1.4222 B(  3-C ,  8-H ) :   0.9157
B(  4-C ,  5-C ) :   1.3430 B(  4-C , 10-N ) :   0.9998 B(  5-C ,  9-H ) :   0.9444
B(  7-H , 40-O ) :   0.1470 B( 10-N , 11-O ) :   1.5883 B( 10-N , 12-O ) :   1.5908
B( 11-O , 12-O ) :   0.1930 B( 13-C , 14-C ) :   0.9566 B( 13-C , 18-N ) :   0.8043
B( 13-C , 21-H ) :   0.9497 B( 14-C , 15-H ) :   0.9704 B( 14-C , 16-H ) :   0.9488
B( 14-C , 17-H ) :   0.9655 B( 18-N , 19-O ) :   1.6250 B( 18-N , 20-O ) :   1.6167
B( 19-O , 20-O ) :   0.2105 B( 22-C , 23-C ) :   1.0154 B( 22-C , 27-C ) :   1.0286
B( 22-C , 28-H ) :   0.9671 B( 23-C , 24-C ) :   0.9737 B( 23-C , 29-H ) :   0.9661
B( 23-C , 30-H ) :   0.9353 B( 24-C , 25-C ) :   0.9867 B( 24-C , 31-H ) :   0.9643
B( 24-C , 32-H ) :   0.9632 B( 25-C , 26-N ) :   0.9486 B( 25-C , 33-H ) :   0.9619
B( 25-C , 34-H ) :   0.9702 B( 26-N , 27-C ) :   0.9491 B( 26-N , 35-H ) :   0.9130
B( 26-N , 38-H ) :   0.1712 B( 27-C , 36-H ) :   0.9595 B( 27-C , 37-H ) :   0.9531
B( 38-H , 40-O ) :   0.7672 B( 39-H , 40-O ) :   0.8891

Dispersion correction           -0.078762779
FINAL SINGLE POINT ENERGY     -1047.502457750843
Dispersion correction            ... done

DIPOLE MOMENT
-------------
                                X             Y             Z
Electronic contribution:    -10.42513     -11.57046     -30.08539
Nuclear contribution   :      9.55766      13.31483      34.04633
                        -----------------------------------------
Total Dipole Moment    :     -0.86748       1.74437       3.96094
                        -----------------------------------------
Magnitude (a.u.)       :      4.41411
Magnitude (Debye)      :     11.21978

VIBRATIONAL FREQUENCIES
-----------------------

Scaling factor for frequencies =  1.000000000 (already applied!)

   0:         0.00 cm**-1
   1:         0.00 cm**-1
   2:         0.00 cm**-1
   3:         0.00 cm**-1
   4:         0.00 cm**-1
   5:         0.00 cm**-1
   6:       -12.09 cm**-1 ***imaginary mode***
   7:        11.51 cm**-1
   8:        16.94 cm**-1
   9:        31.61 cm**-1
  10:        35.66 cm**-1
  11:        44.36 cm**-1
  12:        49.14 cm**-1
  13:        49.17 cm**-1
  14:        60.59 cm**-1
  15:        73.55 cm**-1
  16:        87.47 cm**-1
  17:        93.97 cm**-1
  18:       143.64 cm**-1
  19:       173.38 cm**-1
  20:       180.38 cm**-1
  21:       180.60 cm**-1
  22:       191.17 cm**-1
  23:       229.12 cm**-1
  24:       233.85 cm**-1
  25:       252.03 cm**-1
  26:       284.64 cm**-1
  27:       303.17 cm**-1
  28:       335.21 cm**-1
  29:       369.96 cm**-1
  30:       395.50 cm**-1
  31:       400.94 cm**-1
  32:       436.31 cm**-1
  33:       458.67 cm**-1
  34:       462.10 cm**-1
  35:       490.09 cm**-1
  36:       522.60 cm**-1
  37:       523.40 cm**-1
  38:       541.33 cm**-1
  39:       598.39 cm**-1
  40:       654.19 cm**-1
  41:       656.35 cm**-1
  42:       690.19 cm**-1
  43:       700.27 cm**-1
  44:       752.44 cm**-1
  45:       787.97 cm**-1
  46:       814.25 cm**-1
  47:       815.19 cm**-1
  48:       826.55 cm**-1
  49:       837.33 cm**-1
  50:       858.77 cm**-1
  51:       873.90 cm**-1
  52:       881.56 cm**-1
  53:       885.12 cm**-1
  54:       913.57 cm**-1
  55:       922.93 cm**-1
  56:       938.42 cm**-1
  57:       965.88 cm**-1
  58:       978.28 cm**-1
  59:      1016.63 cm**-1
  60:      1022.25 cm**-1
  61:      1027.00 cm**-1
  62:      1035.59 cm**-1
  63:      1038.56 cm**-1
  64:      1074.17 cm**-1
  65:      1085.43 cm**-1
  66:      1095.58 cm**-1
  67:      1116.86 cm**-1
  68:      1119.67 cm**-1
  69:      1126.65 cm**-1
  70:      1143.82 cm**-1
  71:      1151.57 cm**-1
  72:      1190.17 cm**-1
  73:      1224.86 cm**-1
  74:      1230.61 cm**-1
  75:      1273.46 cm**-1
  76:      1296.13 cm**-1
  77:      1322.06 cm**-1
  78:      1337.93 cm**-1
  79:      1344.57 cm**-1
  80:      1353.70 cm**-1
  81:      1354.29 cm**-1
  82:      1360.48 cm**-1
  83:      1370.79 cm**-1
  84:      1381.26 cm**-1
  85:      1382.28 cm**-1
  86:      1397.53 cm**-1
  87:      1404.67 cm**-1
  88:      1424.29 cm**-1
  89:      1453.99 cm**-1
  90:      1458.42 cm**-1
  91:      1466.73 cm**-1
  92:      1474.76 cm**-1
  93:      1476.39 cm**-1
  94:      1479.81 cm**-1
  95:      1487.92 cm**-1
  96:      1490.04 cm**-1
  97:      1510.78 cm**-1
  98:      1547.31 cm**-1
  99:      1570.91 cm**-1
 100:      1621.94 cm**-1
 101:      1643.93 cm**-1
 102:      1652.42 cm**-1
 103:      2906.23 cm**-1
 104:      2956.81 cm**-1
 105:      3016.59 cm**-1
 106:      3029.20 cm**-1
 107:      3047.54 cm**-1
 108:      3056.30 cm**-1
 109:      3057.18 cm**-1
 110:      3062.54 cm**-1
 111:      3071.63 cm**-1
 112:      3078.02 cm**-1
 113:      3108.97 cm**-1
 114:      3124.63 cm**-1
 115:      3142.66 cm**-1
 116:      3169.96 cm**-1
 117:      3194.53 cm**-1
 118:      3205.48 cm**-1
 119:      3231.25 cm**-1
 120:      3232.39 cm**-1
 121:      3474.73 cm**-1
 122:      3812.05 cm**-1

IR SPECTRUM
-----------

 Mode   freq       eps      Int      T**2         TX        TY        TZ
       cm**-1   L/(mol*cm) km/mol    a.u.
----------------------------------------------------------------------------
  7:     11.51   0.000080    0.40  0.002165  (-0.020750  0.004719 -0.041374)
  8:     16.94   0.000311    1.57  0.005733  ( 0.035995 -0.011415 -0.065631)
  9:     31.61   0.000403    2.04  0.003983  (-0.049108 -0.035585 -0.017459)
 10:     35.66   0.000015    0.08  0.000132  ( 0.008454  0.007808 -0.000263)
 11:     44.36   0.000975    4.93  0.006860  (-0.043106 -0.034355 -0.061822)
 12:     49.14   0.001251    6.32  0.007942  (-0.019611 -0.086916 -0.001803)
 13:     49.17   0.000888    4.49  0.005636  ( 0.060350  0.002172  0.044596)
 14:     60.59   0.001559    7.88  0.008028  ( 0.052288 -0.023419  0.068890)
 15:     73.55   0.000417    2.11  0.001768  (-0.029961 -0.023347  0.018029)
 16:     87.47   0.000713    3.60  0.002544  (-0.049109  0.007887 -0.008358)
 17:     93.97   0.007077   35.76  0.023503  (-0.064701 -0.124995 -0.060769)
 18:    143.64   0.000060    0.30  0.000131  ( 0.010664  0.001122  0.003940)
 19:    173.38   0.019074   96.39  0.034331  (-0.096194 -0.121102 -0.102040)
 20:    180.38   0.002107   10.65  0.003646  ( 0.000550  0.053295  0.028373)
 21:    180.60   0.012113   61.22  0.020931  (-0.085959 -0.102492 -0.055116)
 22:    191.17   0.004514   22.81  0.007369  (-0.052683 -0.066122  0.014873)
 23:    229.12   0.001155    5.84  0.001573  ( 0.011603 -0.019863  0.032314)
 24:    233.85   0.001685    8.52  0.002249  ( 0.027638  0.005687 -0.038118)
 25:    252.03   0.000100    0.51  0.000124  ( 0.009708 -0.003779  0.003938)
 26:    284.64   0.000084    0.42  0.000092  ( 0.008583  0.002150 -0.003722)
 27:    303.17   0.000586    2.96  0.000603  (-0.010833 -0.011917  0.018542)
 28:    335.21   0.001825    9.22  0.001699  ( 0.005000  0.038284  0.014438)
 29:    369.96   0.000104    0.52  0.000087  (-0.004413 -0.008149 -0.001243)
 30:    395.50   0.008075   40.81  0.006372  ( 0.021518 -0.044762 -0.062491)
 31:    400.94   0.000818    4.13  0.000637  ( 0.010355  0.014211  0.018097)
 32:    436.31   0.000044    0.22  0.000032  ( 0.002136  0.003007 -0.004249)
 33:    458.67   0.000457    2.31  0.000311  ( 0.003660  0.000933 -0.017219)
 34:    462.10   0.001922    9.71  0.001298  ( 0.015167 -0.008486  0.031555)
 35:    490.09   0.003381   17.09  0.002153  ( 0.014816  0.034613 -0.027116)
 36:    522.60   0.020511  103.65  0.012248  ( 0.003101  0.054225 -0.096426)
 37:    523.40   0.001853    9.36  0.001105  ( 0.032714  0.005609 -0.001752)
 38:    541.33   0.000618    3.12  0.000356  ( 0.001884 -0.002919 -0.018547)
 39:    598.39   0.003036   15.34  0.001583  (-0.019525 -0.023761  0.025248)
 40:    654.19   0.001642    8.30  0.000783  (-0.002970  0.024592  0.013023)
 41:    656.35   0.003385   17.10  0.001609  ( 0.014203 -0.016232 -0.033824)
 42:    690.19   0.001535    7.76  0.000694  ( 0.018948  0.012750  0.013137)
 43:    700.27   0.010004   50.56  0.004458  ( 0.018980  0.026641 -0.058209)
 44:    752.44   0.012057   60.93  0.005001  (-0.005034 -0.009561  0.069884)
 45:    787.97   0.001886    9.53  0.000747  ( 0.011524  0.023848  0.006745)
 46:    814.25   0.008787   44.41  0.003368  ( 0.016971 -0.031297  0.045827)
 47:    815.19   0.003337   16.86  0.001277  (-0.004452  0.026425 -0.023651)
 48:    826.55   0.005755   29.09  0.002173  (-0.024307 -0.039680 -0.002766)
 49:    837.33   0.002570   12.99  0.000958  (-0.004132 -0.006565 -0.029962)
 50:    858.77   0.009565   48.34  0.003476  (-0.006731  0.019933 -0.055074)
 51:    873.90   0.008094   40.90  0.002890  (-0.035403 -0.008940  0.039460)
 52:    881.56   0.007620   38.51  0.002697  ( 0.025224  0.043936 -0.011442)
 53:    885.12   0.004526   22.87  0.001596  (-0.010468 -0.037424  0.009248)
 54:    913.57   0.006199   31.33  0.002117  ( 0.003965  0.043313  0.015023)
 55:    922.93   0.024506  123.85  0.008286  ( 0.039650  0.079396  0.020255)
 56:    938.42   0.003467   17.52  0.001153  ( 0.009296  0.008699 -0.031476)
 57:    965.88   0.011458   57.90  0.003702  ( 0.000489 -0.056544  0.022461)
 58:    978.28   0.000225    1.14  0.000072  ( 0.003143 -0.001333  0.007759)
 59:   1016.63   0.009829   49.67  0.003017  ( 0.014919  0.031383 -0.042540)
 60:   1022.25   0.001329    6.72  0.000406  ( 0.002430  0.010773  0.016847)
 61:   1027.00   0.000162    0.82  0.000049  ( 0.002093  0.000467  0.006684)
 62:   1035.59   0.001175    5.94  0.000354  ( 0.007934  0.011421  0.012677)
 63:   1038.56   0.000361    1.83  0.000109  (-0.001216  0.003837 -0.009612)
 64:   1074.17   0.004859   24.56  0.001412  ( 0.034245  0.005924  0.014280)
 65:   1085.43   0.004785   24.18  0.001376  ( 0.031880 -0.015264 -0.011247)
 66:   1095.58   0.014784   74.71  0.004211  ( 0.022010  0.057610  0.020192)
 67:   1116.86   0.003066   15.50  0.000857  (-0.022556  0.004235 -0.018166)
 68:   1119.67   0.011428   57.75  0.003185  ( 0.044925  0.028521  0.018796)
 69:   1126.65   0.003288   16.62  0.000911  (-0.028519 -0.005269 -0.008351)
 70:   1143.82   0.000608    3.07  0.000166  (-0.004424 -0.010879 -0.005283)
 71:   1151.57   0.000484    2.44  0.000131  (-0.009690 -0.004728  0.003848)
 72:   1190.17   0.001979   10.00  0.000519  (-0.010312 -0.019289 -0.006367)
 73:   1224.86   0.002001   10.11  0.000510  (-0.015084 -0.015797  0.005712)
 74:   1230.61   0.003769   19.05  0.000956  (-0.011205  0.028473 -0.004426)
 75:   1273.46   0.000086    0.43  0.000021  (-0.003474  0.001672  0.002493)
 76:   1296.13   0.009393   47.47  0.002261  (-0.004411  0.042765  0.020325)
 77:   1322.06   0.001339    6.77  0.000316  (-0.004684 -0.010463  0.013592)
 78:   1337.93   0.004259   21.52  0.000993  ( 0.016437 -0.026222 -0.005972)
 79:   1344.57   0.000396    2.00  0.000092  (-0.005986 -0.007434 -0.000859)
 80:   1353.70   0.000394    1.99  0.000091  (-0.009425 -0.000603  0.001295)
 81:   1354.29   0.001567    7.92  0.000361  (-0.012175 -0.009772  0.010837)
 82:   1360.48   0.138136  698.09  0.031685  ( 0.079576  0.147995  0.058741)
 83:   1370.79   0.000227    1.14  0.000052  (-0.002570  0.000573 -0.006681)
 84:   1381.26   0.007106   35.91  0.001606  ( 0.003594 -0.015484  0.036782)
 85:   1382.28   0.001404    7.09  0.000317  (-0.000861  0.010022 -0.014687)
 86:   1397.53   0.001480    7.48  0.000331  ( 0.004688 -0.014053  0.010540)
 87:   1404.67   0.015324   77.44  0.003404  (-0.048757  0.005952  0.031490)
 88:   1424.29   0.024094  121.76  0.005279  (-0.039955 -0.029813  0.052857)
 89:   1453.99   0.000966    4.88  0.000207  (-0.006843 -0.011434  0.005460)
 90:   1458.42   0.001294    6.54  0.000277  (-0.007407  0.014806 -0.001698)
 91:   1466.73   0.004494   22.71  0.000956  ( 0.015698  0.002002  0.026564)
 92:   1474.76   0.001540    7.78  0.000326  (-0.003043 -0.016626 -0.006337)
 93:   1476.39   0.005380   27.19  0.001137  ( 0.033151  0.001719  0.005930)
 94:   1479.81   0.001124    5.68  0.000237  ( 0.013828  0.003384  0.005862)
 95:   1487.92   0.002956   14.94  0.000620  ( 0.013768 -0.011632 -0.017176)
 96:   1490.04   0.001127    5.69  0.000236  (-0.014501  0.002500  0.004414)
 97:   1510.78   0.019364   97.86  0.004000  (-0.043285  0.045300  0.008607)
 98:   1547.31   0.099937  505.04  0.020156  ( 0.130766 -0.054526  0.009086)
 99:   1570.91   0.119486  603.83  0.023736  (-0.025299  0.151974 -0.000372)
100:   1621.94   0.002393   12.09  0.000460  (-0.000151 -0.020252 -0.007086)
101:   1643.93   0.013878   70.13  0.002634  ( 0.041261 -0.028298 -0.011454)
102:   1652.42   0.001848    9.34  0.000349  (-0.018174  0.003230 -0.002881)
103:   2906.23   0.012117   61.24  0.001301  ( 0.008786 -0.033940 -0.008486)
104:   2956.81   0.011146   56.33  0.001176  ( 0.008983  0.024631  0.022112)
105:   3016.59   0.019260   97.33  0.001992  ( 0.012005  0.002723  0.042906)
106:   3029.20   0.031511  159.24  0.003246  (-0.002321  0.033105 -0.046312)
107:   3047.54   0.352317  1780.46  0.036077  ( 0.042749  0.074931 -0.169218)
108:   3056.30   0.000061    0.31  0.000006  (-0.000685  0.001271 -0.002046)
109:   3057.18   0.002520   12.74  0.000257  ( 0.007795 -0.007918  0.011568)
110:   3062.54   0.048714  246.18  0.004964  (-0.051845  0.001754  0.047674)
111:   3071.63   0.021810  110.22  0.002216  (-0.009803  0.021240 -0.040848)
112:   3078.02   0.012325   62.29  0.001250  ( 0.011447  0.032046  0.009570)
113:   3108.97   0.016609   83.93  0.001667  (-0.010171 -0.038552  0.008797)
114:   3124.63   0.003011   15.22  0.000301  ( 0.017093 -0.000507 -0.002882)
115:   3142.66   0.001117    5.64  0.000111  (-0.005557 -0.003081 -0.008399)
116:   3169.96   0.005905   29.84  0.000581  ( 0.023793  0.003888 -0.000344)
117:   3194.53   0.001167    5.90  0.000114  ( 0.000391  0.010672 -0.000054)
118:   3205.48   0.001110    5.61  0.000108  (-0.010024 -0.002253  0.001595)
119:   3231.25   0.001827    9.23  0.000176  (-0.003919  0.012261  0.003279)
120:   3232.39   0.000778    3.93  0.000075  (-0.007714 -0.003108 -0.002436)
121:   3474.73   0.000464    2.34  0.000042  ( 0.001028 -0.005715 -0.002815)
122:   3812.05   0.014649   74.03  0.001199  ( 0.010891 -0.026722  0.019144)

--------------------------
THERMOCHEMISTRY AT 298.15K
--------------------------

Temperature         ... 298.15 K
Pressure            ... 1.00 atm
Total Mass          ... 298.32 AMU

Throughout the following assumptions are being made:
  (1) The electronic state is orbitally nondegenerate
      but the spin degeneracy is treated
  (2) There are no thermally accessible electronically excited states
  (3) Hindered rotations indicated by low frequency modes are not
      treated as such but are treated as vibrations and this may
      cause some error
  (4) All equations used are the standard statistical mechanics
      equations for an ideal gas
  (5) All vibrations are strictly harmonic

freq.      11.51  E(vib)   ...       0.58
freq.      16.94  E(vib)   ...       0.57
freq.      31.61  E(vib)   ...       0.55
freq.      35.66  E(vib)   ...       0.54
freq.      44.36  E(vib)   ...       0.53
freq.      49.14  E(vib)   ...       0.53
freq.      49.17  E(vib)   ...       0.52
freq.      60.59  E(vib)   ...       0.51
freq.      73.55  E(vib)   ...       0.49
freq.      87.47  E(vib)   ...       0.48
freq.      93.97  E(vib)   ...       0.47
freq.     143.64  E(vib)   ...       0.41
freq.     173.38  E(vib)   ...       0.38
freq.     180.38  E(vib)   ...       0.37
freq.     180.60  E(vib)   ...       0.37
freq.     191.17  E(vib)   ...       0.36
freq.     229.12  E(vib)   ...       0.32
freq.     233.85  E(vib)   ...       0.32
freq.     252.03  E(vib)   ...       0.30
freq.     284.64  E(vib)   ...       0.28
freq.     303.17  E(vib)   ...       0.26
freq.     335.21  E(vib)   ...       0.24
freq.     369.96  E(vib)   ...       0.21
freq.     395.50  E(vib)   ...       0.20
freq.     400.94  E(vib)   ...       0.19
freq.     436.31  E(vib)   ...       0.17
freq.     458.67  E(vib)   ...       0.16
freq.     462.10  E(vib)   ...       0.16
freq.     490.09  E(vib)   ...       0.15
freq.     522.60  E(vib)   ...       0.13
freq.     523.40  E(vib)   ...       0.13
freq.     541.33  E(vib)   ...       0.12
freq.     598.39  E(vib)   ...       0.10
freq.     654.19  E(vib)   ...       0.08
freq.     656.35  E(vib)   ...       0.08
freq.     690.19  E(vib)   ...       0.07
freq.     700.27  E(vib)   ...       0.07
freq.     752.44  E(vib)   ...       0.06
freq.     787.97  E(vib)   ...       0.05
freq.     814.25  E(vib)   ...       0.05
freq.     815.19  E(vib)   ...       0.05
freq.     826.55  E(vib)   ...       0.04
freq.     837.33  E(vib)   ...       0.04
freq.     858.77  E(vib)   ...       0.04
freq.     873.90  E(vib)   ...       0.04
freq.     881.56  E(vib)   ...       0.04
freq.     885.12  E(vib)   ...       0.04
freq.     913.57  E(vib)   ...       0.03
freq.     922.93  E(vib)   ...       0.03
freq.     938.42  E(vib)   ...       0.03
freq.     965.88  E(vib)   ...       0.03
freq.     978.28  E(vib)   ...       0.03
freq.    1016.63  E(vib)   ...       0.02
freq.    1022.25  E(vib)   ...       0.02
freq.    1027.00  E(vib)   ...       0.02
freq.    1035.59  E(vib)   ...       0.02
freq.    1038.56  E(vib)   ...       0.02
freq.    1074.17  E(vib)   ...       0.02
freq.    1085.43  E(vib)   ...       0.02
freq.    1095.58  E(vib)   ...       0.02
freq.    1116.86  E(vib)   ...       0.01
freq.    1119.67  E(vib)   ...       0.01
freq.    1126.65  E(vib)   ...       0.01
freq.    1143.82  E(vib)   ...       0.01
freq.    1151.57  E(vib)   ...       0.01
freq.    1190.17  E(vib)   ...       0.01
freq.    1224.86  E(vib)   ...       0.01
freq.    1230.61  E(vib)   ...       0.01
freq.    1273.46  E(vib)   ...       0.01
freq.    1296.13  E(vib)   ...       0.01
freq.    1322.06  E(vib)   ...       0.01
freq.    1337.93  E(vib)   ...       0.01
freq.    1344.57  E(vib)   ...       0.01
freq.    1353.70  E(vib)   ...       0.01
freq.    1354.29  E(vib)   ...       0.01
freq.    1360.48  E(vib)   ...       0.01
freq.    1370.79  E(vib)   ...       0.01
freq.    1381.26  E(vib)   ...       0.01
freq.    1382.28  E(vib)   ...       0.01
freq.    1397.53  E(vib)   ...       0.00
freq.    1404.67  E(vib)   ...       0.00
freq.    1424.29  E(vib)   ...       0.00
freq.    1453.99  E(vib)   ...       0.00
freq.    1458.42  E(vib)   ...       0.00
freq.    1466.73  E(vib)   ...       0.00
freq.    1474.76  E(vib)   ...       0.00
freq.    1476.39  E(vib)   ...       0.00
freq.    1479.81  E(vib)   ...       0.00
freq.    1487.92  E(vib)   ...       0.00
freq.    1490.04  E(vib)   ...       0.00
freq.    1510.78  E(vib)   ...       0.00
freq.    1547.31  E(vib)   ...       0.00
freq.    1570.91  E(vib)   ...       0.00
freq.    1621.94  E(vib)   ...       0.00
freq.    1643.93  E(vib)   ...       0.00
freq.    1652.42  E(vib)   ...       0.00
freq.    2906.23  E(vib)   ...       0.00
freq.    2956.81  E(vib)   ...       0.00
freq.    3016.59  E(vib)   ...       0.00
freq.    3029.20  E(vib)   ...       0.00
freq.    3047.54  E(vib)   ...       0.00
freq.    3056.30  E(vib)   ...       0.00
freq.    3057.18  E(vib)   ...       0.00
freq.    3062.54  E(vib)   ...       0.00
freq.    3071.63  E(vib)   ...       0.00
freq.    3078.02  E(vib)   ...       0.00
freq.    3108.97  E(vib)   ...       0.00
freq.    3124.63  E(vib)   ...       0.00
freq.    3142.66  E(vib)   ...       0.00
freq.    3169.96  E(vib)   ...       0.00
freq.    3194.53  E(vib)   ...       0.00
freq.    3205.48  E(vib)   ...       0.00
freq.    3231.25  E(vib)   ...       0.00
freq.    3232.39  E(vib)   ...       0.00
freq.    3474.73  E(vib)   ...       0.00
freq.    3812.05  E(vib)   ...       0.00

------------
INNER ENERGY
------------

The inner energy is: U= E(el) + E(ZPE) + E(vib) + E(rot) + E(trans)
    E(el)   - is the total energy from the electronic structure calculation
              = E(kin-el) + E(nuc-el) + E(el-el) + E(nuc-nuc)
    E(ZPE)  - the the zero temperature vibrational energy from the frequency calculation
    E(vib)  - the the finite temperature correction to E(ZPE) due to population
              of excited vibrational states
    E(rot)  - is the rotational thermal energy
    E(trans)- is the translational thermal energy

Summary of contributions to the inner energy U:
Electronic energy                ...  -1047.50245774 Eh
Zero point energy                ...      0.33040388 Eh     207.33 kcal/mol
Thermal vibrational correction   ...      0.01971604 Eh      12.37 kcal/mol
Thermal rotational correction    ...      0.00141627 Eh       0.89 kcal/mol
Thermal translational correction ...      0.00141627 Eh       0.89 kcal/mol
-----------------------------------------------------------------------
Total thermal energy                  -1047.14950528 Eh

Summary of corrections to the electronic energy:
(perhaps to be used in another calculation)
Total thermal correction                  0.02254858 Eh      14.15 kcal/mol

Rotational constants in cm-1:     0.011887     0.005750     0.004810

                             ****ORCA TERMINATED NORMALLY****
TOTAL RUN TIME: 0 days 2 hours 11 minutes 58 seconds 239 msec
