                         Program Version 5.0.4 -  RELEASE  -
|  1> ! NEB-TS b3lyp D3 def2-TZVP CPCM
|  2>
|  3> %pal
|  4> nprocs 102
|  5> end
|  6>
|  7> %cpcm
|  8> epsilon 78.4
|  9> end
| 10>
| 11> %neb
| 12> NEB_End_XYZFile "end.xyz"
| 13> Nimages 6
| 14> end
| 15>
| 16>
| 17> *XYZfile -1 1 start.xyz
| 18>
| 19>                          ****END OF INPUT****
 Total Charge           Charge          ....   -1
 Multiplicity           Mult            ....    1
 Number of Electrons    NEL             ....  144
 Basis Dimension        Dim             ....  649

ORBITAL ENERGIES
----------------

  NO   OCC          E(Eh)            E(eV)
   0   2.0000     -19.174812      -521.7732
   1   2.0000     -19.174342      -521.7604
   2   2.0000     -19.174303      -521.7593
   3   2.0000     -19.174221      -521.7571
   4   2.0000     -19.140540      -520.8406
   5   2.0000     -19.138808      -520.7934
   6   2.0000     -19.093597      -519.5632
   7   2.0000     -19.054074      -518.4877
   8   2.0000     -14.568319      -396.4241
   9   2.0000     -14.567906      -396.4129
  10   2.0000     -14.527825      -395.3222
  11   2.0000     -10.251167      -278.9484
  12   2.0000     -10.249692      -278.9083
  13   2.0000     -10.217857      -278.0420
  14   2.0000     -10.211878      -277.8793
  15   2.0000     -10.211307      -277.8638
  16   2.0000     -10.207228      -277.7528
  17   2.0000     -10.199317      -277.5375
  18   2.0000     -10.162434      -276.5339
  19   2.0000      -1.248939       -33.9854
  20   2.0000      -1.248721       -33.9794
  21   2.0000      -1.206534       -32.8315
  22   2.0000      -1.073954       -29.2238
  23   2.0000      -1.073737       -29.2179
  24   2.0000      -1.030145       -28.0317
  25   2.0000      -0.975958       -26.5572
  26   2.0000      -0.917018       -24.9533
  27   2.0000      -0.904894       -24.6234
  28   2.0000      -0.842084       -22.9143
  29   2.0000      -0.841243       -22.8914
  30   2.0000      -0.781450       -21.2643
  31   2.0000      -0.730376       -19.8745
  32   2.0000      -0.715764       -19.4769
  33   2.0000      -0.690415       -18.7871
  34   2.0000      -0.638151       -17.3650
  35   2.0000      -0.603639       -16.4259
  36   2.0000      -0.589534       -16.0420
  37   2.0000      -0.561594       -15.2817
  38   2.0000      -0.555842       -15.1252
  39   2.0000      -0.552924       -15.0458
  40   2.0000      -0.545878       -14.8541
  41   2.0000      -0.540493       -14.7076
  42   2.0000      -0.532133       -14.4801
  43   2.0000      -0.525063       -14.2877
  44   2.0000      -0.517079       -14.0704
  45   2.0000      -0.508675       -13.8418
  46   2.0000      -0.503670       -13.7056
  47   2.0000      -0.500405       -13.6167
  48   2.0000      -0.490661       -13.3516
  49   2.0000      -0.445928       -12.1343
  50   2.0000      -0.420333       -11.4378
  51   2.0000      -0.406622       -11.0648
  52   2.0000      -0.404950       -11.0192
  53   2.0000      -0.398159       -10.8344
  54   2.0000      -0.395697       -10.7675
  55   2.0000      -0.373553       -10.1649
  56   2.0000      -0.372248       -10.1294
  57   2.0000      -0.340961        -9.2780
  58   2.0000      -0.337307        -9.1786
  59   2.0000      -0.335824        -9.1382
  60   2.0000      -0.335244        -9.1224
  61   2.0000      -0.330921        -9.0048
  62   2.0000      -0.315554        -8.5866
  63   2.0000      -0.314570        -8.5599
  64   2.0000      -0.307961        -8.3800
  65   2.0000      -0.305857        -8.3228
  66   2.0000      -0.298678        -8.1274
  67   2.0000      -0.297298        -8.0899
  68   2.0000      -0.292733        -7.9657
  69   2.0000      -0.272749        -7.4219
  70   2.0000      -0.253832        -6.9071
  71   2.0000      -0.218109        -5.9350
  72   0.0000      -0.110712        -3.0126
  73   0.0000      -0.105399        -2.8681
  74   0.0000      -0.057944        -1.5767
  75   0.0000      -0.028426        -0.7735
  76   0.0000      -0.003013        -0.0820

-------
TIMINGS
-------

Dispersion correction           -0.055749013
FINAL SINGLE POINT ENERGY     -1076.748229625867
Dispersion correction            ... done
Dispersion correction           -0.055753447
FINAL SINGLE POINT ENERGY     -1076.748921331341
Dispersion correction            ... done
Dispersion correction           -0.055771860
FINAL SINGLE POINT ENERGY     -1076.749337670825
Dispersion correction            ... done
FINAL SINGLE POINT ENERGY     -1076.749939317265
FINAL SINGLE POINT ENERGY     -1076.750329343605
FINAL SINGLE POINT ENERGY     -1076.750636078819
FINAL SINGLE POINT ENERGY     -1076.750820193735
FINAL SINGLE POINT ENERGY     -1076.751099783561
FINAL SINGLE POINT ENERGY     -1076.751282849423
FINAL SINGLE POINT ENERGY     -1076.751442659849
FINAL SINGLE POINT ENERGY     -1076.752349066252
FINAL SINGLE POINT ENERGY     -1076.752351812660
FINAL SINGLE POINT ENERGY     -1076.752360734723
FINAL SINGLE POINT ENERGY     -1076.752368348887
FINAL SINGLE POINT ENERGY     -1076.752371829037
FINAL SINGLE POINT ENERGY     -1076.752373555101
FINAL SINGLE POINT ENERGY     -1076.752376747154
Dispersion correction           -0.056129687
FINAL SINGLE POINT ENERGY     -1076.752380068856
Dispersion correction            ... done
Dispersion correction           -0.056138441
FINAL SINGLE POINT ENERGY     -1076.752382433206
Dispersion correction            ... done

CARTESIAN COORDINATES (ANGSTROEM)
---------------------------------
  C     -2.343422    0.611827   -0.626739
  C     -1.063875    0.796321   -0.128292
  C     -0.072386   -0.153363   -0.387493
  C     -0.413333   -1.280450   -1.130836
  C     -1.711129   -1.431342   -1.603440
  C     -2.704229   -0.498822   -1.371628
  H     -0.841586    1.669592    0.463063
  H      0.316144   -2.043003   -1.352453
  H     -3.705343   -0.629887   -1.746665
  N     -2.045029   -2.628146   -2.389686
  O     -3.185261   -2.734466   -2.818040
  O     -1.165454   -3.457311   -2.574749
  C      1.306008    0.026004    0.172915
  H      1.168719    0.463102    1.322567
  C      2.157675   -1.222125    0.289389
  H      3.038752   -1.022243    0.894853
  H      2.487232   -1.606620   -0.678823
  H      1.574052   -1.995630    0.789314
  N      2.022848    1.125853   -0.479486
  O      3.254937    1.108785   -0.470745
  O      1.384739    2.078231   -0.937673
  O      3.517879    1.796634    3.189333
  H      3.768404    1.394053    4.027758
  N     -3.368294    1.629969   -0.350363
  O     -4.510673    1.411501   -0.727183
  O     -3.025891    2.644144    0.239227
  H      0.468241    1.607345    2.699973
  H      2.584743    1.456921    3.003370
  O      1.105534    0.883124    2.682532

Dispersion correction           -0.056163466
FINAL SINGLE POINT ENERGY     -1076.752383282015
Dispersion correction            ... done

DIPOLE MOMENT
-------------
                                X             Y             Z
Electronic contribution:    -17.99059      -1.20739     -14.80111
Nuclear contribution   :     14.84139      -1.40125      12.78652
                        -----------------------------------------
Total Dipole Moment    :     -3.14919      -2.60864      -2.01459
                        -----------------------------------------
Magnitude (a.u.)       :      4.55862
Magnitude (Debye)      :     11.58710

Rotational constants in cm-1:     0.015107     0.007489     0.005683
Rotational constants in MHz :   452.894884   224.524570   170.385262

                             ****ORCA TERMINATED NORMALLY****
TOTAL RUN TIME: 0 days 3 hours 32 minutes 35 seconds 934 msec
