                         Program Version 5.0.4 -  RELEASE  -
|  1> !  opt B3LYP def2-TZVP CPCM D3
|  2> %pal nprocs 102 end
|  3> %cpcm epsilon 78.4 end
|  4> *xyz -1 1
|  5> C   -0.77463 1.15981 -0.03181
|  6> C   0.5796 1.17834 0.32139
|  7> C   1.3175 -0.01022 0.3063
|  8> C   0.6915 -1.20409 -0.04863
|  9> C   -0.67107 -1.20107 -0.38372
| 10> C   -1.42389 -0.02537 -0.38728
| 11> H   1.05198 2.1325 0.60762
| 12> H   1.24662 -2.15508 -0.06567
| 13> H   -2.49401 -0.02996 -0.65583
| 14> N   -1.31123 -2.45023 -0.73645
| 15> O   -2.49482 -2.44517 -1.04224
| 16> O   -0.64787 -3.47722 -0.71843
| 17> C   2.77024 0.04019 0.70776
| 18> H   2.84763 0.52252 1.73199
| 19> C   3.49427 -1.29826 0.7448
| 20> H   4.55145 -1.1873 1.04584
| 21> H   3.50459 -1.80825 -0.2304
| 22> H   3.04441 -1.99109 1.47332
| 23> N   3.54254 0.93088 -0.23578
| 24> O   4.73738 1.0722 -0.03253
| 25> O   2.95902 1.47957 -1.15142
| 26> O   2.58941 3.45965 7.41931
| 27> H   2.89024 2.66993 7.71263
| 28> N   -1.52429 2.39881 -0.02955
| 29> O   -2.70108 2.37641 -0.35677
| 30> O   -0.95515 3.42987 0.2967
| 31> H   2.39957 1.76825 4.27873
| 32> H   2.91304 2.35123 5.58678
| 33> O   3.20087 1.84688 4.80336
| 34> *
| 35>
| 36>                          ****END OF INPUT****
 Total Charge           Charge          ....   -1
 Multiplicity           Mult            ....    1
 Number of Electrons    NEL             ....  144
 Basis Dimension        Dim             ....  649

ORBITAL ENERGIES
----------------

  NO   OCC          E(Eh)            E(eV)
   0   2.0000     -19.177894      -521.8570
   1   2.0000     -19.176190      -521.8107
   2   2.0000     -19.176087      -521.8079
   3   2.0000     -19.175704      -521.7974
   4   2.0000     -19.175584      -521.7942
   5   2.0000     -19.174757      -521.7717
   6   2.0000     -19.104024      -519.8469
   7   2.0000     -18.977366      -516.4004
   8   2.0000     -14.572402      -396.5352
   9   2.0000     -14.572047      -396.5256
  10   2.0000     -14.562838      -396.2750
  11   2.0000     -10.262214      -279.2491
  12   2.0000     -10.262120      -279.2465
  13   2.0000     -10.258293      -279.1423
  14   2.0000     -10.234315      -278.4899
  15   2.0000     -10.229595      -278.3614
  16   2.0000     -10.228988      -278.3449
  17   2.0000     -10.228180      -278.3229
  18   2.0000     -10.181265      -277.0463
  19   2.0000      -1.254863       -34.1466
  20   2.0000      -1.254049       -34.1244
  21   2.0000      -1.251919       -34.0664
  22   2.0000      -1.075352       -29.2618
  23   2.0000      -1.074999       -29.2522
  24   2.0000      -1.074201       -29.2305
  25   2.0000      -0.989587       -26.9280
  26   2.0000      -0.925226       -25.1767
  27   2.0000      -0.867245       -23.5989
  28   2.0000      -0.854842       -23.2614
  29   2.0000      -0.845765       -23.0144
  30   2.0000      -0.798393       -21.7254
  31   2.0000      -0.739576       -20.1249
  32   2.0000      -0.729643       -19.8546
  33   2.0000      -0.703445       -19.1417
  34   2.0000      -0.653918       -17.7940
  35   2.0000      -0.608522       -16.5587
  36   2.0000      -0.597592       -16.2613
  37   2.0000      -0.584326       -15.9003
  38   2.0000      -0.565801       -15.3962
  39   2.0000      -0.560980       -15.2650
  40   2.0000      -0.558102       -15.1867
  41   2.0000      -0.551797       -15.0151
  42   2.0000      -0.545293       -14.8382
  43   2.0000      -0.537947       -14.6383
  44   2.0000      -0.536952       -14.6112
  45   2.0000      -0.530723       -14.4417
  46   2.0000      -0.522355       -14.2140
  47   2.0000      -0.505242       -13.7483
  48   2.0000      -0.499534       -13.5930
  49   2.0000      -0.471719       -12.8361
  50   2.0000      -0.428295       -11.6545
  51   2.0000      -0.417131       -11.3507
  52   2.0000      -0.410338       -11.1659
  53   2.0000      -0.404855       -11.0167
  54   2.0000      -0.394079       -10.7234
  55   2.0000      -0.379287       -10.3209
  56   2.0000      -0.375251       -10.2111
  57   2.0000      -0.344632        -9.3779
  58   2.0000      -0.338556        -9.2126
  59   2.0000      -0.337541        -9.1850
  60   2.0000      -0.336884        -9.1671
  61   2.0000      -0.335646        -9.1334
  62   2.0000      -0.334135        -9.0923
  63   2.0000      -0.330252        -8.9866
  64   2.0000      -0.320425        -8.7192
  65   2.0000      -0.315668        -8.5898
  66   2.0000      -0.314547        -8.5593
  67   2.0000      -0.305757        -8.3201
  68   2.0000      -0.301266        -8.1979
  69   2.0000      -0.291646        -7.9361
  70   2.0000      -0.196698        -5.3524
  71   2.0000      -0.193518        -5.2659
  72   0.0000      -0.119192        -3.2434
  73   0.0000      -0.112131        -3.0512
  74   0.0000      -0.087631        -2.3846
  75   0.0000      -0.043585        -1.1860
  76   0.0000      -0.009851        -0.2681

MULLIKEN ATOMIC CHARGES
-----------------------
   0 C :    0.124208
   1 C :   -0.191658
   2 C :    0.132966
   3 C :   -0.172711
   4 C :    0.097637
   5 C :   -0.162151
   6 H :    0.189755
   7 H :    0.196936
   8 H :    0.195997
   9 N :    0.467287
  10 O :   -0.346419
  11 O :   -0.347371
  12 C :    0.044423
  13 H :    0.178831
  14 C :   -0.435160
  15 H :    0.162234
  16 H :    0.155208
  17 H :    0.160737
  18 N :    0.436736
  19 O :   -0.339639
  20 O :   -0.327544
  21 O :   -1.145321
  22 H :    0.255231
  23 N :    0.464219
  24 O :   -0.345013
  25 O :   -0.343144
  26 H :    0.348707
  27 H :    0.263982
  28 O :   -0.718963
Sum of atomic charges:   -1.0000000

LOEWDIN ATOMIC CHARGES
----------------------
   0 C :   -0.141888
   1 C :   -0.009100
   2 C :   -0.110948
   3 C :   -0.012611
   4 C :   -0.141106
   5 C :   -0.020769
   6 H :    0.179288
   7 H :    0.179046
   8 H :    0.179557
   9 N :   -0.014280
  10 O :   -0.036989
  11 O :   -0.036619
  12 C :   -0.198223
  13 H :    0.197980
  14 C :   -0.267948
  15 H :    0.137656
  16 H :    0.137067
  17 H :    0.142828
  18 N :   -0.025855
  19 O :   -0.036519
  20 O :   -0.017247
  21 O :   -0.933735
  22 H :    0.026267
  23 N :   -0.014737
  24 O :   -0.034760
  25 O :   -0.034832
  26 H :    0.159048
  27 H :    0.122141
  28 O :   -0.372713

  Mayer bond orders larger than 0.100000
B(  0-C ,  1-C ) :   1.3793 B(  0-C ,  5-C ) :   1.3873 B(  0-C , 23-N ) :   1.0131
B(  1-C ,  2-C ) :   1.3386 B(  1-C ,  6-H ) :   0.9291 B(  2-C ,  3-C ) :   1.3712
B(  2-C , 12-C ) :   0.9547 B(  3-C ,  4-C ) :   1.3986 B(  3-C ,  7-H ) :   0.9028
B(  4-C ,  5-C ) :   1.4083 B(  4-C ,  9-N ) :   1.0170 B(  5-C ,  8-H ) :   0.8929
B(  9-N , 10-O ) :   1.5927 B(  9-N , 11-O ) :   1.5827 B( 10-O , 11-O ) :   0.1941
B( 12-C , 13-H ) :   0.9221 B( 12-C , 14-C ) :   0.9548 B( 12-C , 18-N ) :   0.8585
B( 14-C , 15-H ) :   0.9584 B( 14-C , 16-H ) :   0.9536 B( 14-C , 17-H ) :   0.9654
B( 18-N , 19-O ) :   1.6122 B( 18-N , 20-O ) :   1.6194 B( 19-O , 20-O ) :   0.2111
B( 21-O , 22-H ) :   0.9554 B( 21-O , 27-H ) :   0.2406 B( 23-N , 24-O ) :   1.5922
B( 23-N , 25-O ) :   1.5935 B( 24-O , 25-O ) :   0.1954 B( 26-H , 28-O ) :   0.8873
B( 27-H , 28-O ) :   0.8206

Dispersion correction           -0.051962472
FINAL SINGLE POINT ENERGY     -1076.719129063925
Dispersion correction            ... done
Dispersion correction           -0.052087526
FINAL SINGLE POINT ENERGY     -1076.731014162191
Dispersion correction            ... done
Dispersion correction           -0.052184603
FINAL SINGLE POINT ENERGY     -1076.733734727360
Dispersion correction            ... done
FINAL SINGLE POINT ENERGY     -1076.736005560765
FINAL SINGLE POINT ENERGY     -1076.738192154090
FINAL SINGLE POINT ENERGY     -1076.739956107202
FINAL SINGLE POINT ENERGY     -1076.741965103647
FINAL SINGLE POINT ENERGY     -1076.743319133867
FINAL SINGLE POINT ENERGY     -1076.744087282865
FINAL SINGLE POINT ENERGY     -1076.744529788693
FINAL SINGLE POINT ENERGY     -1076.753592056919
FINAL SINGLE POINT ENERGY     -1076.753635396917
FINAL SINGLE POINT ENERGY     -1076.753674041162
FINAL SINGLE POINT ENERGY     -1076.753681032422
FINAL SINGLE POINT ENERGY     -1076.753719841402
FINAL SINGLE POINT ENERGY     -1076.753775335252
FINAL SINGLE POINT ENERGY     -1076.753816025527
Dispersion correction           -0.054867991
FINAL SINGLE POINT ENERGY     -1076.753844528845
Dispersion correction            ... done
Dispersion correction           -0.054884215
FINAL SINGLE POINT ENERGY     -1076.753880355910
Dispersion correction            ... done

CARTESIAN COORDINATES (ANGSTROEM)
---------------------------------
  C     -0.802308    0.770658    1.040353
  C      0.541120    0.702013    1.382608
  C      1.387130   -0.115654    0.634929
  C      0.874565   -0.854278   -0.426956
  C     -0.474171   -0.746801   -0.732797
  C     -1.340256    0.063332   -0.017833
  H      0.965114    1.258638    2.219430
  H      1.506295   -1.498343   -1.020095
  H     -2.384262    0.135093   -0.274698
  N     -1.011001   -1.516005   -1.864806
  O     -2.197455   -1.394474   -2.130475
  O     -0.241421   -2.238230   -2.481676
  C      2.836405   -0.171270    1.040680
  H      2.954188    0.429082    1.952595
  C      3.398534   -1.577091    1.220685
  H      4.438785   -1.531268    1.538815
  H      3.330673   -2.158371    0.301144
  H      2.819391   -2.082853    1.992611
  N      3.716443    0.555070    0.022536
  O      4.818747    0.899204    0.416981
  O      3.306171    0.743740   -1.110242
  O      2.183818    4.039807    4.501682
  H      3.009784    4.305902    4.920662
  N     -1.693775    1.635986    1.829185
  O     -2.858240    1.741846    1.470260
  O     -1.224842    2.204259    2.803920
  H      2.520766    1.085788    4.151697
  H      2.367554    3.098770    4.093908
  O      2.586066    1.749179    3.454914

Dispersion correction           -0.054888653
FINAL SINGLE POINT ENERGY     -1076.753926446968
Dispersion correction            ... done

DIPOLE MOMENT
-------------
                                X             Y             Z
Electronic contribution:    -13.63264      -4.28091     -16.07913
Nuclear contribution   :     12.84758      -0.90571      12.60223
                        -----------------------------------------
Total Dipole Moment    :     -0.78507      -5.18662      -3.47690
                        -----------------------------------------
Magnitude (a.u.)       :      6.29335
Magnitude (Debye)      :     15.99641

Rotational constants in cm-1:     0.012261     0.008975     0.005616
Rotational constants in MHz :   367.576358   269.055347   168.369256

                             ****ORCA TERMINATED NORMALLY****
TOTAL RUN TIME: 0 days 1 hours 59 minutes 24 seconds 812 msec
