                         Program Version 5.0.4 -  RELEASE  -
|  1> !  opt B3LYP def2-TZVP CPCM D3
|  2> %pal nprocs 102 end
|  3> %cpcm epsilon 78.4 end
|  4> *xyz 0 1
|  5> C   0.43894599 -0.77639832 0.55622185
|  6> H   1.00103145 -1.42925313 -0.14513711
|  7> H   0.92667888 0.22334185 0.53474678
|  8> H   0.56277581 -1.18154808 1.57869132
|  9> N   -0.96542738 -0.66256387 0.18566748
| 10> O   -1.7978889 -0.48800953 1.06559165
| 11> O   -1.28184476 -0.73681258 -0.99344884
| 12> H   3.76887115 -1.65235434 1.37166354
| 13> O   2.95725465 -1.18060492 1.58833817
| 14> H   3.17575147 -0.25345875 1.42924301
| 15> *
| 16>
| 17>                          ****END OF INPUT****
 Total Charge           Charge          ....    0
 Multiplicity           Mult            ....    1
 Number of Electrons    NEL             ....   42
Dispersion correction           -0.008206632
FINAL SINGLE POINT ENERGY      -321.451587640048
Dispersion correction            ... done
Dispersion correction           -0.008154600
FINAL SINGLE POINT ENERGY      -321.454425236832
Dispersion correction            ... done
Dispersion correction           -0.008091081
FINAL SINGLE POINT ENERGY      -321.455505665554
Dispersion correction            ... done
FINAL SINGLE POINT ENERGY      -321.456133781977
FINAL SINGLE POINT ENERGY      -321.456548618188
FINAL SINGLE POINT ENERGY      -321.456750193594
FINAL SINGLE POINT ENERGY      -321.456883022797
FINAL SINGLE POINT ENERGY      -321.456953009598
FINAL SINGLE POINT ENERGY      -321.456970962111
FINAL SINGLE POINT ENERGY      -321.456975483034
FINAL SINGLE POINT ENERGY      -321.457233481760
FINAL SINGLE POINT ENERGY      -321.457314763681
FINAL SINGLE POINT ENERGY      -321.457352829371
FINAL SINGLE POINT ENERGY      -321.457378768571
FINAL SINGLE POINT ENERGY      -321.457457310328
FINAL SINGLE POINT ENERGY      -321.457526985858
FINAL SINGLE POINT ENERGY      -321.457540803104
Dispersion correction            ... done
Dispersion correction           -0.007803146
FINAL SINGLE POINT ENERGY      -321.457543768431
Dispersion correction            ... done
Dispersion correction           -0.007801588
FINAL SINGLE POINT ENERGY      -321.457544119568
Dispersion correction            ... done
                    ***********************HURRAY********************

CARTESIAN COORDINATES (ANGSTROEM)
---------------------------------
  C      0.390520   -0.765516    0.635034
  H      0.913342   -1.515258    0.048217
  H      0.839854    0.212904    0.475639
  H      0.347087   -1.018492    1.687084
  N     -1.004765   -0.683664    0.111229
  O     -1.926353   -0.715416    0.910944
  O     -1.147400   -0.574937   -1.096640
  H      3.429969   -1.679297    1.027587
  O      3.512245   -1.156488    1.834955
  H      3.431651   -0.241498    1.537528

 Multiplicity           Mult            ....    1
 Number of Electrons    NEL             ....   42
 Basis Dimension        Dim             ....  185

ORBITAL ENERGIES
----------------

  NO   OCC          E(Eh)            E(eV)
   0   2.0000     -19.171936      -521.6949
   1   2.0000     -19.170235      -521.6486
   2   2.0000     -19.124407      -520.4016
   3   2.0000     -14.559116      -396.1737
   4   2.0000     -10.220535      -278.1149
   5   2.0000      -1.243128       -33.8272
   6   2.0000      -1.069225       -29.0951
   7   2.0000      -1.007978       -27.4285
   8   2.0000      -0.813039       -22.1239
   9   2.0000      -0.624713       -16.9993
  10   2.0000      -0.555670       -15.1205
  11   2.0000      -0.544750       -14.8234
  12   2.0000      -0.534350       -14.5404
  13   2.0000      -0.525259       -14.2930
  14   2.0000      -0.439427       -11.9574
  15   2.0000      -0.421726       -11.4758
  16   2.0000      -0.392741       -10.6870
  17   2.0000      -0.332183        -9.0392
  18   2.0000      -0.326130        -8.8745
  19   2.0000      -0.315464        -8.5842
  20   2.0000      -0.309443        -8.4204
  21   0.0000      -0.081552        -2.2191
  22   0.0000       0.023641         0.6433
  23   0.0000       0.069520         1.8917
  24   0.0000       0.096114         2.6154
  25   0.0000       0.115819         3.1516

MULLIKEN ATOMIC CHARGES
-----------------------
   0 C :   -0.272704
   1 H :    0.173676
   2 H :    0.179143
   3 H :    0.164651
   4 N :    0.430187
   5 O :   -0.348128
   6 O :   -0.346947
   7 H :    0.360873
   8 O :   -0.701650
   9 H :    0.360899
Sum of atomic charges:    0.0000000

LOEWDIN ATOMIC CHARGES
----------------------
   0 C :   -0.242726
   1 H :    0.137928
   2 H :    0.142869
   3 H :    0.130290
   4 N :   -0.067706
   5 O :   -0.057731
   6 O :   -0.061304
   7 H :    0.172954
   8 O :   -0.327901
   9 H :    0.173328

  Mayer bond orders larger than 0.100000
B(  0-C ,  1-H ) :   0.9436 B(  0-C ,  2-H ) :   0.9376 B(  0-C ,  3-H ) :   0.9537
B(  0-C ,  4-N ) :   0.8745 B(  4-N ,  5-O ) :   1.6230 B(  4-N ,  6-O ) :   1.6084
B(  5-O ,  6-O ) :   0.2101 B(  7-H ,  8-O ) :   0.8807 B(  8-O ,  9-H ) :   0.8806

Dispersion correction           -0.007802071
FINAL SINGLE POINT ENERGY      -321.457544106981

DIPOLE MOMENT
-------------
                                X             Y             Z
Electronic contribution:     -6.44174       0.50121      -2.32349
Nuclear contribution   :      8.00906      -0.28976       2.08392
                        -----------------------------------------
Total Dipole Moment    :      1.56733       0.21145      -0.23958
                        -----------------------------------------
Magnitude (a.u.)       :      1.59957
Magnitude (Debye)      :      4.06578

Rotational constants in cm-1:     0.399421     0.046523     0.042252
Rotational constants in MHz : 11974.350093  1394.732491  1266.687297

                             ****ORCA TERMINATED NORMALLY****
TOTAL RUN TIME: 0 days 0 hours 20 minutes 14 seconds 806 msec
