                         Program Version 5.0.4 -  RELEASE  -
|  1> ! NEB-TS b3lyp D3 def2-TZVP CPCM
|  2>
|  3> %pal
|  4> nprocs 102
|  5> end
|  6>
|  7> %cpcm
|  8> epsilon 78.4
|  9> end
| 10>
| 11> %neb
| 12> NEB_End_XYZFile "end.xyz"
| 13> Nimages 6
| 14> end
| 15>
| 16>
| 17> *XYZfile 0 1 start.xyz
| 18>
| 19>                          ****END OF INPUT****
 Total Charge           Charge          ....    0
 Multiplicity           Mult            ....    1
 Number of Electrons    NEL             ....  100
Dispersion correction           -0.043830713
FINAL SINGLE POINT ENERGY      -648.295297709883
Dispersion correction            ... done
Dispersion correction           -0.043755431
FINAL SINGLE POINT ENERGY      -648.295452022402
Dispersion correction            ... done
Dispersion correction           -0.043696291
FINAL SINGLE POINT ENERGY      -648.295544930401
Dispersion correction            ... done
FINAL SINGLE POINT ENERGY      -648.295632429257
FINAL SINGLE POINT ENERGY      -648.295696939701
FINAL SINGLE POINT ENERGY      -648.295711055244
FINAL SINGLE POINT ENERGY      -648.295692621391
FINAL SINGLE POINT ENERGY      -648.295725496623
FINAL SINGLE POINT ENERGY      -648.295745781439
FINAL SINGLE POINT ENERGY      -648.295754253096
FINAL SINGLE POINT ENERGY      -648.295755348024
FINAL SINGLE POINT ENERGY      -648.295757392569
Dispersion correction            ... done
Dispersion correction           -0.043544552
FINAL SINGLE POINT ENERGY      -648.295758367629
Dispersion correction            ... done

CARTESIAN COORDINATES (ANGSTROEM)
---------------------------------
  C     -2.887307    1.492627   -0.128891
  H     -2.248311    1.855907   -0.932226
  N     -1.852054   -0.730355   -0.128358
  O     -1.652359   -0.588541   -1.354761
  O     -1.613149   -1.829912    0.425035
  H     -3.083351    0.923816    2.530261
  C     -2.229575    0.378293    0.656138
  H     -0.981128    0.838509    0.990835
  H     -3.840234    1.179101   -0.570831
  C     -2.883157    0.008827    1.971381
  H     -3.836239   -0.512222    1.825063
  C      2.889402    0.703241   -0.662167
  C      3.785889    0.071115   -1.501545
  C      3.559827   -1.258298   -1.842649
  C      2.445077   -1.917769   -1.337197
  C      1.584732   -1.231329   -0.501763
  N      1.823106    0.048250   -0.186999
  H      4.642139    0.611526   -1.878370
  H      4.247061   -1.776099   -2.498622
  H      2.240842   -2.949250   -1.585395
  H     -3.088005    2.324493    0.547321
  H     -2.241535   -0.626440    2.579522
  H      0.693608   -1.673408   -0.077084
  H      2.996438    1.733424   -0.352699
  H      0.271131    1.056304    2.226779
  H      1.105969    0.586201    0.491852
  O      0.151182    1.281989    1.295369

Dispersion correction           -0.043538222
FINAL SINGLE POINT ENERGY      -648.295759417946
Dispersion correction            ... done
                    ***********************HURRAY********************
 Multiplicity           Mult            ....    1
 Number of Electrons    NEL             ....  100
 Basis Dimension        Dim             ....  487

ORBITAL ENERGIES
----------------

  NO   OCC          E(Eh)            E(eV)
   0   2.0000     -19.121384      -520.3193
   1   2.0000     -19.120893      -520.3059
   2   2.0000     -19.091405      -519.5035
   3   2.0000     -14.507881      -394.7795
   4   2.0000     -14.388245      -391.5240
   5   2.0000     -10.243368      -278.7362
   6   2.0000     -10.241001      -278.6718
   7   2.0000     -10.214356      -277.9468
   8   2.0000     -10.204144      -277.6689
   9   2.0000     -10.203488      -277.6510
  10   2.0000     -10.182345      -277.0757
  11   2.0000     -10.155176      -276.3364
  12   2.0000     -10.154807      -276.3264
  13   2.0000      -1.182311       -32.1723
  14   2.0000      -1.007203       -27.4074
  15   2.0000      -1.004848       -27.3433
  16   2.0000      -0.953090       -25.9349
  17   2.0000      -0.837410       -22.7871
  18   2.0000      -0.820023       -22.3140
  19   2.0000      -0.800032       -21.7700
  20   2.0000      -0.690913       -18.8007
  21   2.0000      -0.683842       -18.6083
  22   2.0000      -0.669083       -18.2067
  23   2.0000      -0.665154       -18.0997
  24   2.0000      -0.586927       -15.9711
  25   2.0000      -0.550025       -14.9669
  26   2.0000      -0.521877       -14.2010
  27   2.0000      -0.518453       -14.1078
  28   2.0000      -0.506308       -13.7773
  29   2.0000      -0.491508       -13.3746
  30   2.0000      -0.487162       -13.2563
  31   2.0000      -0.483864       -13.1666
  32   2.0000      -0.461086       -12.5468
  33   2.0000      -0.451161       -12.2767
  34   2.0000      -0.446038       -12.1373
  35   2.0000      -0.416218       -11.3259
  36   2.0000      -0.399383       -10.8678
  37   2.0000      -0.394643       -10.7388
  38   2.0000      -0.392512       -10.6808
  39   2.0000      -0.385395       -10.4871
  40   2.0000      -0.382261       -10.4018
  41   2.0000      -0.353241        -9.6122
  42   2.0000      -0.345910        -9.4127
  43   2.0000      -0.326334        -8.8800
  44   2.0000      -0.298044        -8.1102
  45   2.0000      -0.295183        -8.0323
  46   2.0000      -0.291177        -7.9233
  47   2.0000      -0.288908        -7.8616
  48   2.0000      -0.264325        -7.1926
  49   2.0000      -0.213881        -5.8200
  50   0.0000      -0.070554        -1.9199
  51   0.0000      -0.044648        -1.2149
  52   0.0000      -0.041417        -1.1270
  53   0.0000       0.038797         1.0557
  54   0.0000       0.057897         1.5755

-------
TIMINGS
-------

Dispersion correction           -0.043539001
FINAL SINGLE POINT ENERGY      -648.295760050257
                    ***********************HURRAY************************

DIPOLE MOMENT
-------------
                                X             Y             Z
Electronic contribution:      8.79361      -6.11898      -5.73148
Nuclear contribution   :     -4.52501       6.52788       5.61159
                        -----------------------------------------
Total Dipole Moment    :      4.26860       0.40890      -0.11989
                        -----------------------------------------
Magnitude (a.u.)       :      4.28981
Magnitude (Debye)      :     10.90384

Rotational constants in cm-1:     0.048022     0.012890     0.011711
Rotational constants in MHz :  1439.652591   386.444260   351.087935

                             ****ORCA TERMINATED NORMALLY****
TOTAL RUN TIME: 0 days 2 hours 32 minutes 16 seconds 843 msec
