                         Program Version 5.0.4 -  RELEASE  -
|  1> !  NUMFREQ B3LYP def2-TZVP CPCM D3
|  2> %pal nprocs 102 end
|  3> %cpcm epsilon 78.4 end
|  4> *xyz 0 1
|  5> C   -2.48633725892743 1.69002587080877 -0.67748787190856
|  6> H   -1.8631811918054 2.16582170639526 0.07116435482339
|  7> N   -3.41635756045292 0.31511940935326 1.1462010165812
|  8> O   -2.67712180194883 0.88007353755091 1.97029360595548
|  9> O   -4.3025993895755 -0.47674001411518 1.51003658604714
| 10> H   -3.11822618342506 1.72319491860408 -2.70075438232633
| 11> C   -3.19112600458668 0.47756255113667 -0.24888739612085
| 12> H   -4.09338374566056 0.21274767036736 -0.79071943859534
| 13> H   -2.36481154409477 -0.55132332741641 -0.51216583748822 M = 2
| 14> C   -2.51742065678281 2.17768487665433 -1.92003299566028
| 15> H   -1.93550391321301 3.04908572887237 -2.19086711836768
| 16> C   1.75444032431995 -1.22231056703475 -0.31494477218582
| 17> C   2.99278833380258 -0.76519704024006 0.11218943677732
| 18> C   2.99713795700987 0.20061075134304 1.12167036258788
| 19> C   1.80417217699381 0.66407076899587 1.65697218616233
| 20> C   0.61079800648171 0.1569778082389 1.17213993180341
| 21> N   0.61076432612564 -0.76609713034861 0.20636887073661
| 22> H   1.65820684966975 -1.96792134182654 -1.09391185012982
| 23> H   1.79482359249293 1.41028471144231 2.43893050183925
| 24> H   -0.35739941272364 0.47410180744842 1.53675145085784
| 25> C   4.26236009221553 -1.27985000391445 -0.49780525057417
| 26> H   4.95558411030856 -1.61148684183314 0.27732679404781
| 27> H   4.76005497581243 -0.49021478974268 -1.06565844863677
| 28> H   4.06570221539156 -2.11400487289531 -1.17072760046366
| 29> H   3.94048261639154 0.58819146944582 1.48718737158324
| 30> H   -1.89643811549293 -2.2984757891844 -0.45700805164909
| 31> O   -1.54177109361524 -1.47788945158923 -0.82359670928496
| 32> H   -0.44563770471111 -1.16404241651672 -0.24266474641127
| 33> *
| 34>
| 35>                          ****END OF INPUT****

CARTESIAN COORDINATES (ANGSTROEM)
---------------------------------
  C     -2.486337    1.690026   -0.677488
  H     -1.863181    2.165822    0.071164
  N     -3.416358    0.315119    1.146201
  O     -2.677122    0.880074    1.970294
  O     -4.302599   -0.476740    1.510037
  H     -3.118226    1.723195   -2.700754
  C     -3.191126    0.477563   -0.248887
  H     -4.093384    0.212748   -0.790719
  H     -2.364812   -0.551323   -0.512166
  C     -2.517421    2.177685   -1.920033
  H     -1.935504    3.049086   -2.190867
  C      1.754440   -1.222311   -0.314945
  C      2.992788   -0.765197    0.112189
  C      2.997138    0.200611    1.121670
  C      1.804172    0.664071    1.656972
  C      0.610798    0.156978    1.172140
  N      0.610764   -0.766097    0.206369
  H      1.658207   -1.967921   -1.093912
  H      1.794824    1.410285    2.438931
  H     -0.357399    0.474102    1.536751
  C      4.262360   -1.279850   -0.497805
  H      4.955584   -1.611487    0.277327
  H      4.760055   -0.490215   -1.065658
  H      4.065702   -2.114005   -1.170728
  H      3.940483    0.588191    1.487187
  H     -1.896438   -2.298476   -0.457008
  O     -1.541771   -1.477889   -0.823597
  H     -0.445638   -1.164042   -0.242665

 Total Charge           Charge          ....    0
 Multiplicity           Mult            ....    1
 Number of Electrons    NEL             ....  106
 Basis Dimension        Dim             ....  518

ORBITAL ENERGIES
----------------

  NO   OCC          E(Eh)            E(eV)
   0   2.0000     -19.136505      -520.7308
   1   2.0000     -19.134185      -520.6676
   2   2.0000     -19.104463      -519.8589
   3   2.0000     -14.526745      -395.2928
   4   2.0000     -14.369878      -391.0242
   5   2.0000     -10.230032      -278.3733
   6   2.0000     -10.229626      -278.3623
   7   2.0000     -10.207319      -277.7553
   8   2.0000     -10.203891      -277.6620
   9   2.0000     -10.196736      -277.4673
  10   2.0000     -10.186310      -277.1836
  11   2.0000     -10.175937      -276.9013
  12   2.0000     -10.170460      -276.7523
  13   2.0000     -10.155866      -276.3552
  14   2.0000      -1.201054       -32.6823
  15   2.0000      -1.024120       -27.8677
  16   2.0000      -0.994823       -27.0705
  17   2.0000      -0.967449       -26.3256
  18   2.0000      -0.837300       -22.7841
  19   2.0000      -0.822305       -22.3760
  20   2.0000      -0.798810       -21.7367
  21   2.0000      -0.745847       -20.2955
  22   2.0000      -0.716582       -19.4992
  23   2.0000      -0.656517       -17.8647
  24   2.0000      -0.633576       -17.2405
  25   2.0000      -0.608776       -16.5656
  26   2.0000      -0.564179       -15.3521
  27   2.0000      -0.557097       -15.1594
  28   2.0000      -0.527765       -14.3612
  29   2.0000      -0.525331       -14.2950
  30   2.0000      -0.517069       -14.0702
  31   2.0000      -0.504959       -13.7406
  32   2.0000      -0.500324       -13.6145
  33   2.0000      -0.470019       -12.7899
  34   2.0000      -0.463347       -12.6083
  35   2.0000      -0.445648       -12.1267
  36   2.0000      -0.439083       -11.9481
  37   2.0000      -0.428633       -11.6637
  38   2.0000      -0.422115       -11.4863
  39   2.0000      -0.410458       -11.1691
  40   2.0000      -0.406155       -11.0520
  41   2.0000      -0.395262       -10.7556
  42   2.0000      -0.375756       -10.2248
  43   2.0000      -0.362974        -9.8770
  44   2.0000      -0.353616        -9.6224
  45   2.0000      -0.311906        -8.4874
  46   2.0000      -0.306345        -8.3361
  47   2.0000      -0.303944        -8.2707
  48   2.0000      -0.300727        -8.1832
  49   2.0000      -0.293613        -7.9896
  50   2.0000      -0.279616        -7.6087
  51   2.0000      -0.278019        -7.5653
  52   2.0000      -0.219153        -5.9634
  53   0.0000      -0.062084        -1.6894
  54   0.0000      -0.055710        -1.5159
  55   0.0000      -0.033139        -0.9017
  56   0.0000       0.009747         0.2652
  57   0.0000       0.045807         1.2465

MULLIKEN ATOMIC CHARGES
-----------------------
   0 C :   -0.104005
   1 H :    0.141355
   2 N :    0.446508
   3 O :   -0.441489
   4 O :   -0.443272
   5 H :    0.131332
   6 C :   -0.280661
   7 H :    0.151303
   8 H :    0.310385
   9 C :   -0.364124
  10 H :    0.138489
  11 C :   -0.037339
  12 C :    0.103414
  13 C :   -0.137721
  14 C :   -0.133514
  15 C :   -0.003710
  16 N :   -0.181181
  17 H :    0.174562
  18 H :    0.167520
  19 H :    0.202862
  20 C :   -0.365786
  21 H :    0.143574
  22 H :    0.144254
  23 H :    0.139648
  24 H :    0.165884
  25 H :    0.348204
  26 O :   -0.735362
  27 H :    0.318870
Sum of atomic charges:    0.0000000

LOEWDIN ATOMIC CHARGES
----------------------
   0 C :   -0.229420
   1 H :    0.145942
   2 N :   -0.057161
   3 O :   -0.135362
   4 O :   -0.148088
   5 H :    0.122772
   6 C :   -0.307878
   7 H :    0.144959
   8 H :    0.180380
   9 C :   -0.241269
  10 H :    0.123073
  11 C :   -0.121059
  12 C :   -0.155959
  13 C :   -0.051535
  14 C :   -0.116582
  15 C :   -0.150848
  16 N :    0.218631
  17 H :    0.157968
  18 H :    0.161683
  19 H :    0.150282
  20 C :   -0.237625
  21 H :    0.137971
  22 H :    0.139226
  23 H :    0.135003
  24 H :    0.164382
  25 H :    0.151105
  26 O :   -0.345930
  27 H :    0.165337

  Mayer bond orders larger than 0.100000
B(  0-C ,  1-H ) :   0.9409 B(  0-C ,  6-C ) :   1.0050 B(  0-C ,  9-C ) :   1.8454
B(  2-N ,  3-O ) :   1.4753 B(  2-N ,  4-O ) :   1.4793 B(  2-N ,  6-C ) :   1.0531
B(  3-O ,  4-O ) :   0.1404 B(  5-H ,  9-C ) :   0.9693 B(  6-C ,  7-H ) :   0.9378
B(  6-C ,  8-H ) :   0.4850 B(  8-H , 26-O ) :   0.4404 B(  9-C , 10-H ) :   0.9686
B( 11-C , 12-C ) :   1.4318 B( 11-C , 16-N ) :   1.3472 B( 11-C , 17-H ) :   0.9385
B( 12-C , 13-C ) :   1.3489 B( 12-C , 20-C ) :   0.9277 B( 13-C , 14-C ) :   1.4235
B( 13-C , 24-H ) :   0.9588 B( 14-C , 15-C ) :   1.4216 B( 14-C , 18-H ) :   0.9590
B( 15-C , 16-N ) :   1.3322 B( 15-C , 19-H ) :   0.9211 B( 16-N , 27-H ) :   0.5237
B( 20-C , 21-H ) :   0.9647 B( 20-C , 22-H ) :   0.9536 B( 20-C , 23-H ) :   0.9836
B( 25-H , 26-O ) :   0.8767 B( 26-O , 27-H ) :   0.4335

Dispersion correction           -0.045520227
FINAL SINGLE POINT ENERGY      -686.378651087379
Dispersion correction            ... done

DIPOLE MOMENT
-------------
                                X             Y             Z
Electronic contribution:     -7.70205      -0.59804       6.56924
Nuclear contribution   :     12.88880      -0.07655      -7.38714
                        -----------------------------------------
Total Dipole Moment    :      5.18675      -0.67459      -0.81789
                        -----------------------------------------
Magnitude (a.u.)       :      5.29399
Magnitude (Debye)      :     13.45626

VIBRATIONAL FREQUENCIES
-----------------------

Scaling factor for frequencies =  1.000000000 (already applied!)

   0:         0.00 cm**-1
   1:         0.00 cm**-1
   2:         0.00 cm**-1
   3:         0.00 cm**-1
   4:         0.00 cm**-1
   5:         0.00 cm**-1
   6:     -1219.93 cm**-1 ***imaginary mode***
   7:        19.63 cm**-1
   8:        35.72 cm**-1
   9:        56.20 cm**-1
  10:        63.07 cm**-1
  11:        74.24 cm**-1
  12:        75.84 cm**-1
  13:        77.84 cm**-1
  14:       108.95 cm**-1
  15:       118.66 cm**-1
  16:       168.81 cm**-1
  17:       216.41 cm**-1
  18:       219.92 cm**-1
  19:       251.79 cm**-1
  20:       346.76 cm**-1
  21:       401.28 cm**-1
  22:       403.56 cm**-1
  23:       420.87 cm**-1
  24:       450.30 cm**-1
  25:       489.76 cm**-1
  26:       503.46 cm**-1
  27:       539.00 cm**-1
  28:       551.83 cm**-1
  29:       613.28 cm**-1
  30:       664.61 cm**-1
  31:       716.43 cm**-1
  32:       720.88 cm**-1
  33:       730.10 cm**-1
  34:       755.09 cm**-1
  35:       822.33 cm**-1
  36:       881.87 cm**-1
  37:       900.51 cm**-1
  38:       917.26 cm**-1
  39:       938.72 cm**-1
  40:       940.71 cm**-1
  41:       985.16 cm**-1
  42:      1020.34 cm**-1
  43:      1028.88 cm**-1
  44:      1029.49 cm**-1
  45:      1031.16 cm**-1
  46:      1069.30 cm**-1
  47:      1072.30 cm**-1
  48:      1073.60 cm**-1
  49:      1122.64 cm**-1
  50:      1138.83 cm**-1
  51:      1153.73 cm**-1
  52:      1196.74 cm**-1
  53:      1216.34 cm**-1
  54:      1264.80 cm**-1
  55:      1292.84 cm**-1
  56:      1305.11 cm**-1
  57:      1316.73 cm**-1
  58:      1368.88 cm**-1
  59:      1377.53 cm**-1
  60:      1411.41 cm**-1
  61:      1417.48 cm**-1
  62:      1440.15 cm**-1
  63:      1467.73 cm**-1
  64:      1470.51 cm**-1
  65:      1474.29 cm**-1
  66:      1488.15 cm**-1
  67:      1517.79 cm**-1
  68:      1609.75 cm**-1
  69:      1656.42 cm**-1
  70:      1669.52 cm**-1
  71:      1674.50 cm**-1
  72:      3036.93 cm**-1
  73:      3088.82 cm**-1
  74:      3118.20 cm**-1
  75:      3127.37 cm**-1
  76:      3145.75 cm**-1
  77:      3168.99 cm**-1
  78:      3180.61 cm**-1
  79:      3193.86 cm**-1
  80:      3198.02 cm**-1
  81:      3211.69 cm**-1
  82:      3213.49 cm**-1
  83:      3783.12 cm**-1

IR SPECTRUM
-----------

 Mode   freq       eps      Int      T**2         TX        TY        TZ
       cm**-1   L/(mol*cm) km/mol    a.u.
----------------------------------------------------------------------------
  7:     19.63   0.000107    0.54  0.001698  ( 0.030830  0.015805  0.022299)
  8:     35.72   0.000390    1.97  0.003407  ( 0.010265  0.000095 -0.057459)
  9:     56.20   0.001415    7.15  0.007854  ( 0.087377 -0.010088  0.010825)
 10:     63.07   0.008684   43.89  0.042971  (-0.048178 -0.158004 -0.125240)
 11:     74.24   0.004772   24.11  0.020056  (-0.058446 -0.087406 -0.094871)
 12:     75.84   0.000985    4.98  0.004054  ( 0.020295 -0.051408 -0.031609)
 13:     77.84   0.007526   38.03  0.030170  (-0.137796 -0.068778 -0.080324)
 14:    108.95   0.001029    5.20  0.002946  ( 0.021841  0.038597  0.031291)
 15:    118.66   0.028360  143.32  0.074584  (-0.205990 -0.113035 -0.139196)
 16:    168.81   0.173453  876.56  0.320650  ( 0.315516  0.330808  0.334164)
 17:    216.41   0.012342   62.37  0.017798  ( 0.067250  0.070678  0.090993)
 18:    219.92   0.001578    7.97  0.002239  ( 0.021606  0.006521  0.041587)
 19:    251.79   0.345811  1747.59  0.428590  (-0.367808 -0.419399 -0.342654)
 20:    346.76   0.011190   56.55  0.010070  (-0.058500 -0.062991 -0.051769)
 21:    401.28   0.000562    2.84  0.000437  (-0.002086  0.015845  0.013475)
 22:    403.56   0.031532  159.35  0.024382  (-0.092103 -0.108833 -0.063677)
 23:    420.87   0.060648  306.49  0.044969  ( 0.114018  0.120814  0.131808)
 24:    450.30   0.018017   91.05  0.012486  (-0.025250 -0.074453 -0.079407)
 25:    489.76   0.002055   10.39  0.001310  ( 0.022182  0.011487 -0.026184)
 26:    503.46   0.020990  106.08  0.013010  (-0.033961 -0.058304 -0.091966)
 27:    539.00   0.003841   19.41  0.002224  (-0.022332 -0.033969  0.023903)
 28:    551.83   0.010486   52.99  0.005930  (-0.048379 -0.036717 -0.047340)
 29:    613.28   0.007434   37.57  0.003783  (-0.055776 -0.024702 -0.007838)
 30:    664.61   0.019137   96.71  0.008986  ( 0.085173  0.015421  0.038644)
 31:    716.43   0.018673   94.36  0.008133  ( 0.003565 -0.089327 -0.011897)
 32:    720.88   0.005622   28.41  0.002434  ( 0.022327  0.014132 -0.041661)
 33:    730.10   0.081219  410.45  0.034715  ( 0.157833  0.052881  0.083710)
 34:    755.09   0.003593   18.16  0.001485  ( 0.001785  0.017610  0.034226)
 35:    822.33   0.010952   55.35  0.004156  ( 0.011924 -0.045464  0.044124)
 36:    881.87   0.053082  268.26  0.018784  (-0.105992 -0.040230 -0.077014)
 37:    900.51   0.030713  155.21  0.010643  ( 0.031007  0.086891  0.046173)
 38:    917.26   0.024336  122.99  0.008279  ( 0.089171  0.018110  0.000016)
 39:    938.72   0.001027    5.19  0.000341  ( 0.004551  0.017642  0.003070)
 40:    940.71   0.000588    2.97  0.000195  ( 0.004563 -0.008859  0.009790)
 41:    985.16   0.000763    3.85  0.000242  ( 0.003094 -0.009930  0.011548)
 42:   1020.34   0.001525    7.71  0.000467  (-0.012566 -0.012082 -0.012752)
 43:   1028.88   0.000124    0.63  0.000038  (-0.005598 -0.001931 -0.001599)
 44:   1029.49   0.003550   17.94  0.001076  (-0.025710  0.017033  0.011173)
 45:   1031.16   0.007492   37.86  0.002267  (-0.042261  0.018760  0.011378)
 46:   1069.30   0.010166   51.37  0.002967  ( 0.040529  0.015915  0.032723)
 47:   1072.30   0.005123   25.89  0.001491  (-0.010968  0.000609 -0.037018)
 48:   1073.60   0.003690   18.65  0.001073  ( 0.024059  0.022155  0.001700)
 49:   1122.64   0.061708  311.85  0.017153  ( 0.115872  0.045312  0.040909)
 50:   1138.83   0.023431  118.41  0.006421  ( 0.045015 -0.001916  0.066262)
 51:   1153.73   0.064950  328.23  0.017568  (-0.104012 -0.052938 -0.062825)
 52:   1196.74   0.007508   37.94  0.001958  (-0.024300 -0.013441  0.034448)
 53:   1216.34   0.011670   58.98  0.002994  ( 0.050231  0.015727  0.014954)
 54:   1264.80   0.027156  137.24  0.006700  ( 0.071788  0.026735  0.028842)
 55:   1292.84   0.015339   77.52  0.003703  (-0.041345 -0.039847  0.020136)
 56:   1305.11   0.007150   36.13  0.001710  ( 0.034568 -0.012447 -0.018968)
 57:   1316.73   0.023075  116.61  0.005469  ( 0.048470  0.053312 -0.016653)
 58:   1368.88   0.002119   10.71  0.000483  (-0.012388 -0.005055 -0.017439)
 59:   1377.53   0.150866  762.41  0.034177  ( 0.011417  0.062759 -0.173516)
 60:   1411.41   0.002528   12.77  0.000559  (-0.021840  0.008941 -0.001396)
 61:   1417.48   0.003768   19.04  0.000830  (-0.001103 -0.028623 -0.003014)
 62:   1440.15   0.044347  224.11  0.009610  ( 0.076789  0.060023  0.010497)
 63:   1467.73   0.000654    3.31  0.000139  (-0.004873 -0.006050 -0.008877)
 64:   1470.51   0.010546   53.30  0.002238  ( 0.009081  0.039532 -0.024349)
 65:   1474.29   0.070595  356.76  0.014943  ( 0.099446  0.068567  0.018762)
 66:   1488.15   0.009550   48.26  0.002003  (-0.010733 -0.008387  0.042628)
 67:   1517.79   0.002723   13.76  0.000560  (-0.023481 -0.002925  0.000250)
 68:   1609.75   0.011890   60.09  0.002305  (-0.041162  0.020450  0.013871)
 69:   1656.42   0.012597   63.66  0.002373  (-0.023047 -0.032776 -0.027711)
 70:   1669.52   0.013119   66.30  0.002452  ( 0.012608  0.026329 -0.039999)
 71:   1674.50   0.007964   40.25  0.001484  ( 0.032590 -0.018281 -0.009377)
 72:   3036.93   0.002404   12.15  0.000247  (-0.013622  0.003893  0.006806)
 73:   3088.82   0.002078   10.50  0.000210  ( 0.003122 -0.011294  0.008523)
 74:   3118.20   0.002867   14.49  0.000287  ( 0.004141  0.011461  0.011765)
 75:   3127.37   0.001910    9.65  0.000191  ( 0.003413  0.000109  0.013377)
 76:   3145.75   0.000539    2.72  0.000053  ( 0.002638  0.006010  0.003223)
 77:   3168.99   0.000722    3.65  0.000071  ( 0.005633  0.005635 -0.002767)
 78:   3180.61   0.000972    4.91  0.000095  (-0.009505 -0.001577 -0.001580)
 79:   3193.86   0.000218    1.10  0.000021  (-0.000940 -0.002859 -0.003501)
 80:   3198.02   0.004747   23.99  0.000463  (-0.021220  0.003389  0.001197)
 81:   3211.69   0.000809    4.09  0.000079  ( 0.008197  0.001279  0.003123)
 82:   3213.49   0.002819   14.24  0.000274  (-0.011318 -0.011673 -0.003060)
 83:   3783.12   0.014689   74.23  0.001212  ( 0.008525  0.033351 -0.005171)

--------------------------
THERMOCHEMISTRY AT 298.15K
--------------------------

Temperature         ... 298.15 K
Pressure            ... 1.00 atm
Total Mass          ... 199.21 AMU

Throughout the following assumptions are being made:
  (1) The electronic state is orbitally nondegenerate
  (2) There are no thermally accessible electronically excited states
  (3) Hindered rotations indicated by low frequency modes are not
      treated as such but are treated as vibrations and this may
      cause some error
  (4) All equations used are the standard statistical mechanics
      equations for an ideal gas
  (5) All vibrations are strictly harmonic

freq.      19.63  E(vib)   ...       0.56
freq.      35.72  E(vib)   ...       0.54
freq.      56.20  E(vib)   ...       0.52
freq.      63.07  E(vib)   ...       0.51
freq.      74.24  E(vib)   ...       0.49
freq.      75.84  E(vib)   ...       0.49
freq.      77.84  E(vib)   ...       0.49
freq.     108.95  E(vib)   ...       0.45
freq.     118.66  E(vib)   ...       0.44
freq.     168.81  E(vib)   ...       0.38
freq.     216.41  E(vib)   ...       0.34
freq.     219.92  E(vib)   ...       0.33
freq.     251.79  E(vib)   ...       0.30
freq.     346.76  E(vib)   ...       0.23
freq.     401.28  E(vib)   ...       0.19
freq.     403.56  E(vib)   ...       0.19
freq.     420.87  E(vib)   ...       0.18
freq.     450.30  E(vib)   ...       0.17
freq.     489.76  E(vib)   ...       0.15
freq.     503.46  E(vib)   ...       0.14
freq.     539.00  E(vib)   ...       0.12
freq.     551.83  E(vib)   ...       0.12
freq.     613.28  E(vib)   ...       0.10
freq.     664.61  E(vib)   ...       0.08
freq.     716.43  E(vib)   ...       0.07
freq.     720.88  E(vib)   ...       0.07
freq.     730.10  E(vib)   ...       0.06
freq.     755.09  E(vib)   ...       0.06
freq.     822.33  E(vib)   ...       0.05
freq.     881.87  E(vib)   ...       0.04
freq.     900.51  E(vib)   ...       0.03
freq.     917.26  E(vib)   ...       0.03
freq.     938.72  E(vib)   ...       0.03
freq.     940.71  E(vib)   ...       0.03
freq.     985.16  E(vib)   ...       0.02
freq.    1020.34  E(vib)   ...       0.02
freq.    1028.88  E(vib)   ...       0.02
freq.    1029.49  E(vib)   ...       0.02
freq.    1031.16  E(vib)   ...       0.02
freq.    1069.30  E(vib)   ...       0.02
freq.    1072.30  E(vib)   ...       0.02
freq.    1073.60  E(vib)   ...       0.02
freq.    1122.64  E(vib)   ...       0.01
freq.    1138.83  E(vib)   ...       0.01
freq.    1153.73  E(vib)   ...       0.01
freq.    1196.74  E(vib)   ...       0.01
freq.    1216.34  E(vib)   ...       0.01
freq.    1264.80  E(vib)   ...       0.01
freq.    1292.84  E(vib)   ...       0.01
freq.    1305.11  E(vib)   ...       0.01
freq.    1316.73  E(vib)   ...       0.01
freq.    1368.88  E(vib)   ...       0.01
freq.    1377.53  E(vib)   ...       0.01
freq.    1411.41  E(vib)   ...       0.00
freq.    1417.48  E(vib)   ...       0.00
freq.    1440.15  E(vib)   ...       0.00
freq.    1467.73  E(vib)   ...       0.00
freq.    1470.51  E(vib)   ...       0.00
freq.    1474.29  E(vib)   ...       0.00
freq.    1488.15  E(vib)   ...       0.00
freq.    1517.79  E(vib)   ...       0.00
freq.    1609.75  E(vib)   ...       0.00
freq.    1656.42  E(vib)   ...       0.00
freq.    1669.52  E(vib)   ...       0.00
freq.    1674.50  E(vib)   ...       0.00
freq.    3036.93  E(vib)   ...       0.00
freq.    3088.82  E(vib)   ...       0.00
freq.    3118.20  E(vib)   ...       0.00
freq.    3127.37  E(vib)   ...       0.00
freq.    3145.75  E(vib)   ...       0.00
freq.    3168.99  E(vib)   ...       0.00
freq.    3180.61  E(vib)   ...       0.00
freq.    3193.86  E(vib)   ...       0.00
freq.    3198.02  E(vib)   ...       0.00
freq.    3211.69  E(vib)   ...       0.00
freq.    3213.49  E(vib)   ...       0.00
freq.    3783.12  E(vib)   ...       0.00

------------
INNER ENERGY
------------

The inner energy is: U= E(el) + E(ZPE) + E(vib) + E(rot) + E(trans)
    E(el)   - is the total energy from the electronic structure calculation
              = E(kin-el) + E(nuc-el) + E(el-el) + E(nuc-nuc)
    E(ZPE)  - the the zero temperature vibrational energy from the frequency calculation
    E(vib)  - the the finite temperature correction to E(ZPE) due to population
              of excited vibrational states
    E(rot)  - is the rotational thermal energy
    E(trans)- is the translational thermal energy

Summary of contributions to the inner energy U:
Electronic energy                ...   -686.37865109 Eh
Zero point energy                ...      0.21420378 Eh     134.41 kcal/mol
Thermal vibrational correction   ...      0.01317325 Eh       8.27 kcal/mol
Thermal rotational correction    ...      0.00141627 Eh       0.89 kcal/mol
Thermal translational correction ...      0.00141627 Eh       0.89 kcal/mol
-----------------------------------------------------------------------
Total thermal energy                   -686.14844151 Eh

Summary of corrections to the electronic energy:
(perhaps to be used in another calculation)
Total thermal correction                  0.01600580 Eh      10.04 kcal/mol
Non-thermal (ZPE) correction              0.21420378 Eh     134.41 kcal/mol
-----------------------------------------------------------------------
Total correction                          0.23020957 Eh     144.46 kcal/mol

--------
ENTHALPY
--------

The enthalpy is H = U + kB*T
                kB is Boltzmann's constant
Total free energy                 ...   -686.14844151 Eh
Thermal Enthalpy correction       ...      0.00094421 Eh       0.59 kcal/mol
-----------------------------------------------------------------------
Total Enthalpy                    ...   -686.14749730 Eh

Note: Only C1 symmetry has been detected, increase convergence thresholds
      if your molecule has a higher symmetry. Symmetry factor of 1.0 is
      used for the rotational entropy correction.

Note: Rotational entropy computed according to Herzberg
Infrared and Raman Spectra, Chapter V,1, Van Nostrand Reinhold, 1945
Point Group:  C1, Symmetry Number:   1
Rotational constants in cm-1:     0.037215     0.009714     0.009389

Vibrational entropy computed according to the QRRHO of S. Grimme
Chem.Eur.J. 2012 18 9955

-------
ENTROPY
-------

The entropy contributions are T*S = T*(S(el)+S(vib)+S(rot)+S(trans))
     S(el)   - electronic entropy
     S(vib)  - vibrational entropy
     S(rot)  - rotational entropy
     S(trans)- translational entropy

                             ****ORCA TERMINATED NORMALLY****
TOTAL RUN TIME: 0 days 0 hours 27 minutes 18 seconds 397 msec
