                         Program Version 5.0.4 -  RELEASE  -
|  1> !  NUMFREQ B3LYP def2-TZVP CPCM D3
|  2> %pal nprocs 102 end
|  3> %cpcm epsilon 78.4 end
|  4> *xyz 0 2
|  5> C   -2.99398323708616 -0.56496462490373 -1.65869931189959
|  6> C   -1.66616565508063 -0.31494623984437 -1.32923667821096
|  7> C   -0.61954403918926 -0.6640675291847 -2.18957101146748
|  8> C   -0.93864010808234 -1.28246556963217 -3.39736673931413
|  9> C   -2.27012181492559 -1.51369540490355 -3.71353775161227
| 10> C   -3.31502254681577 -1.16530347819515 -2.86574446495802
| 11> H   -3.78271144296702 -0.28014422694596 -0.97521927455343
| 12> H   -1.43439413371248 0.16691113509228 -0.38900516557386
| 13> H   -0.17055854188952 -1.57671680726906 -4.09438195571495
| 14> H   -4.33811671860792 -1.35765838356019 -3.14887069802207
| 15> N   -2.58803287824516 -2.15174165667691 -4.99476866924057
| 16> O   -3.76723219469514 -2.33947848662069 -5.27229013026558
| 17> O   -1.66504462897951 -2.46924495582699 -5.73539086497872
| 18> C   0.78575693028226 -0.41983948861536 -1.73534864550896
| 19> C   1.30304453967018 -1.40356549280746 -0.70021344168555
| 20> H   0.51931748160155 -1.58410475384999 0.03411604380982
| 21> H   2.17300596299344 -1.00879045496759 -0.17754142519182
| 22> H   1.5750067345808 -2.36265083489237 -1.14991339743371
| 23> N   1.72107838518304 -0.15277962350052 -2.78374689334088
| 24> O   2.91573732671736 -0.44629175039092 -2.6142936055992
| 25> O   1.34775913719121 0.46863473697264 -3.79439818754282
| 26> H   0.78063697006843 0.76255535211731 -1.12903617747394
| 27> C   -0.2493925815467 0.32344731952243 3.93768065694397
| 28> C   1.08065825496333 0.30922275214896 4.60486067751943
| 29> C   1.96880845924108 1.46595288418963 4.12199564276637
| 30> C   1.9676305927266 1.56448136785632 2.60555512125453
| 31> N   0.57891213952643 1.72272625183395 2.08406414062575
| 32> C   -0.31649499915571 0.58915901408494 2.4792329071951
| 33> H   -1.11983241335466 -0.09380992938791 4.42501002747632
| 34> H   0.97043941057677 0.3391253953796 5.68991889320729
| 35> H   1.59462690718776 -0.63910001943488 4.37335410169395
| 36> H   2.99492652076077 1.32853433648502 4.46605482906433
| 37> H   1.60731107050585 2.40907006487937 4.54156566449972
| 38> H   2.54299167438994 2.418152696956 2.25142897653286
| 39> H   2.37054975057338 0.66009528723202 2.1466486811996
| 40> H   0.1873699977601 2.59413009202411 2.44191299771293
| 41> H   -1.32421572505505 0.83059228586933 2.14446798132921
| 42> H   0.0302417063138 -0.27270127451885 1.89460286466763
| 43> H   0.62010103992844 1.80457795388136 0.98630025442373
| 44> H   0.11040095603164 2.41928166968642 -0.88714052266869
| 45> O   0.81319171061443 1.88741038971768 -0.49305544966527
| 46> *
| 47>
| 48>                          ****END OF INPUT****

CARTESIAN COORDINATES (ANGSTROEM)
---------------------------------
  C     -2.993983   -0.564965   -1.658699
  C     -1.666166   -0.314946   -1.329237
  C     -0.619544   -0.664068   -2.189571
  C     -0.938640   -1.282466   -3.397367
  C     -2.270122   -1.513695   -3.713538
  C     -3.315023   -1.165303   -2.865744
  H     -3.782711   -0.280144   -0.975219
  H     -1.434394    0.166911   -0.389005
  H     -0.170559   -1.576717   -4.094382
  H     -4.338117   -1.357658   -3.148871
  N     -2.588033   -2.151742   -4.994769
  O     -3.767232   -2.339478   -5.272290
  O     -1.665045   -2.469245   -5.735391
  C      0.785757   -0.419839   -1.735349
  C      1.303045   -1.403565   -0.700213
  H      0.519317   -1.584105    0.034116
  H      2.173006   -1.008790   -0.177541
  H      1.575007   -2.362651   -1.149913
  N      1.721078   -0.152780   -2.783747
  O      2.915737   -0.446292   -2.614294
  O      1.347759    0.468635   -3.794398
  H      0.780637    0.762555   -1.129036
  C     -0.249393    0.323447    3.937681
  C      1.080658    0.309223    4.604861
  C      1.968808    1.465953    4.121996
  C      1.967631    1.564481    2.605555
  N      0.578912    1.722726    2.084064
  C     -0.316495    0.589159    2.479233
  H     -1.119832   -0.093810    4.425010
  H      0.970439    0.339125    5.689919
  H      1.594627   -0.639100    4.373354
  H      2.994927    1.328534    4.466055
  H      1.607311    2.409070    4.541566
  H      2.542992    2.418153    2.251429
  H      2.370550    0.660095    2.146649
  H      0.187370    2.594130    2.441913
  H     -1.324216    0.830592    2.144468
  H      0.030242   -0.272701    1.894603
  H      0.620101    1.804578    0.986300
  H      0.110401    2.419282   -0.887141
  O      0.813192    1.887410   -0.493055

 Total Charge           Charge          ....    0
 Multiplicity           Mult            ....    2
 Number of Electrons    NEL             ....  159
 Basis Dimension        Dim             ....  771

ORBITAL ENERGIES
----------------
                 SPIN UP ORBITALS
  NO   OCC          E(Eh)            E(eV)
   0   1.0000     -19.167053      -521.5620
   1   1.0000     -19.166754      -521.5539
   2   1.0000     -19.133975      -520.6619
   3   1.0000     -19.131564      -520.5963
   4   1.0000     -19.079061      -519.1676
   5   1.0000     -14.560009      -396.1980
   6   1.0000     -14.521987      -395.1633
   7   1.0000     -14.386955      -391.4889
   8   1.0000     -10.235170      -278.5131
   9   1.0000     -10.217396      -278.0295
  10   1.0000     -10.212724      -277.9023
  11   1.0000     -10.200782      -277.5774
  12   1.0000     -10.195394      -277.4308
  13   1.0000     -10.194013      -277.3932
  14   1.0000     -10.193386      -277.3761
  15   1.0000     -10.187935      -277.2278
  16   1.0000     -10.186944      -277.2009
  17   1.0000     -10.185009      -277.1482
  18   1.0000     -10.173616      -276.8382
  19   1.0000     -10.172836      -276.8170
  20   1.0000     -10.161274      -276.5023
  21   1.0000      -1.240026       -33.7428
  22   1.0000      -1.198685       -32.6179
  23   1.0000      -1.064306       -28.9612
  24   1.0000      -1.021698       -27.8018
  25   1.0000      -0.979179       -26.6448
  26   1.0000      -0.936461       -25.4824
  27   1.0000      -0.892004       -24.2727
  28   1.0000      -0.835462       -22.7341
  29   1.0000      -0.806930       -21.9577
  30   1.0000      -0.799579       -21.7577
  31   1.0000      -0.775089       -21.0912
  32   1.0000      -0.757678       -20.6175
  33   1.0000      -0.705614       -19.2007
  34   1.0000      -0.692312       -18.8388
  35   1.0000      -0.673291       -18.3212
  36   1.0000      -0.638747       -17.3812
  37   1.0000      -0.634248       -17.2588
  38   1.0000      -0.601081       -16.3562
  39   1.0000      -0.588277       -16.0078
  40   1.0000      -0.576877       -15.6976
  41   1.0000      -0.554518       -15.0892
  42   1.0000      -0.546472       -14.8703
  43   1.0000      -0.543300       -14.7840
  44   1.0000      -0.533736       -14.5237
  45   1.0000      -0.522315       -14.2129
  46   1.0000      -0.510700       -13.8969
  47   1.0000      -0.508864       -13.8469
  48   1.0000      -0.501617       -13.6497
  49   1.0000      -0.497307       -13.5324
  50   1.0000      -0.472547       -12.8587
  51   1.0000      -0.466480       -12.6936
  52   1.0000      -0.459371       -12.5001
  53   1.0000      -0.454093       -12.3565
  54   1.0000      -0.443191       -12.0598
  55   1.0000      -0.438637       -11.9359
  56   1.0000      -0.429511       -11.6876
  57   1.0000      -0.415321       -11.3015
  58   1.0000      -0.410788       -11.1781
  59   1.0000      -0.406085       -11.0501
  60   1.0000      -0.396599       -10.7920
  61   1.0000      -0.389891       -10.6095
  62   1.0000      -0.387615       -10.5475
  63   1.0000      -0.376601       -10.2478
  64   1.0000      -0.365698        -9.9511
  65   1.0000      -0.357884        -9.7385
  66   1.0000      -0.350479        -9.5370
  67   1.0000      -0.342286        -9.3141
  68   1.0000      -0.334958        -9.1147
  69   1.0000      -0.329530        -8.9670
  70   1.0000      -0.327342        -8.9074
  71   1.0000      -0.307945        -8.3796
  72   1.0000      -0.303025        -8.2457
  73   1.0000      -0.300180        -8.1683
  74   1.0000      -0.283248        -7.7076
  75   1.0000      -0.280110        -7.6222
  76   1.0000      -0.276683        -7.5289
  77   1.0000      -0.267464        -7.2781
  78   1.0000      -0.219827        -5.9818
  79   1.0000      -0.204475        -5.5641
  80   0.0000      -0.100886        -2.7452
  81   0.0000      -0.056028        -1.5246
  82   0.0000      -0.020836        -0.5670
  83   0.0000      -0.003904        -0.1062
  84   0.0000       0.029118         0.7923

                 SPIN DOWN ORBITALS
  NO   OCC          E(Eh)            E(eV)
   0   1.0000     -19.167053      -521.5620
   1   1.0000     -19.166754      -521.5539
   2   1.0000     -19.133973      -520.6619
   3   1.0000     -19.131564      -520.5963
   4   1.0000     -19.079010      -519.1663
   5   1.0000     -14.560009      -396.1980
   6   1.0000     -14.521986      -395.1633
   7   1.0000     -14.386322      -391.4717
   8   1.0000     -10.235170      -278.5131
   9   1.0000     -10.218219      -278.0519
  10   1.0000     -10.212756      -277.9032
  11   1.0000     -10.200783      -277.5774
  12   1.0000     -10.195393      -277.4307
  13   1.0000     -10.194012      -277.3932
  14   1.0000     -10.193386      -277.3761
  15   1.0000     -10.187934      -277.2278
  16   1.0000     -10.186944      -277.2008
  17   1.0000     -10.173579      -276.8372
  18   1.0000     -10.173088      -276.8238
  19   1.0000     -10.171233      -276.7733
  20   1.0000     -10.161250      -276.5017
  21   1.0000      -1.240026       -33.7428
  22   1.0000      -1.198684       -32.6178
  23   1.0000      -1.064306       -28.9612
  24   1.0000      -1.021696       -27.8018
  25   1.0000      -0.977730       -26.6054
  26   1.0000      -0.936216       -25.4757
  27   1.0000      -0.892002       -24.2726
  28   1.0000      -0.835449       -22.7337
  29   1.0000      -0.799646       -21.7595
  30   1.0000      -0.798838       -21.7375
  31   1.0000      -0.766471       -20.8567
  32   1.0000      -0.757673       -20.6173
  33   1.0000      -0.705602       -19.2004
  34   1.0000      -0.692269       -18.8376
  35   1.0000      -0.671466       -18.2715
  36   1.0000      -0.634244       -17.2586
  37   1.0000      -0.629875       -17.1398
  38   1.0000      -0.601071       -16.3560
  39   1.0000      -0.580192       -15.7878
  40   1.0000      -0.576847       -15.6968
  41   1.0000      -0.554428       -15.0868
  42   1.0000      -0.546471       -14.8702
  43   1.0000      -0.540125       -14.6976
  44   1.0000      -0.533689       -14.5224
  45   1.0000      -0.522298       -14.2125
  46   1.0000      -0.509886       -13.8747
  47   1.0000      -0.505471       -13.7546
  48   1.0000      -0.501611       -13.6495
  49   1.0000      -0.497271       -13.5314
  50   1.0000      -0.469801       -12.7839
  51   1.0000      -0.466474       -12.6934
  52   1.0000      -0.454364       -12.3639
  53   1.0000      -0.451335       -12.2815
  54   1.0000      -0.442957       -12.0535
  55   1.0000      -0.434860       -11.8331
  56   1.0000      -0.422269       -11.4905
  57   1.0000      -0.415053       -11.2942
  58   1.0000      -0.407875       -11.0989
  59   1.0000      -0.404610       -11.0100
  60   1.0000      -0.395318       -10.7572
  61   1.0000      -0.387656       -10.5486
  62   1.0000      -0.387591       -10.5469
  63   1.0000      -0.376545       -10.2463
  64   1.0000      -0.365204        -9.9377
  65   1.0000      -0.357609        -9.7310
  66   1.0000      -0.346283        -9.4228
  67   1.0000      -0.338652        -9.2152
  68   1.0000      -0.332952        -9.0601
  69   1.0000      -0.329524        -8.9668
  70   1.0000      -0.327254        -8.9050
  71   1.0000      -0.307944        -8.3796
  72   1.0000      -0.303015        -8.2455
  73   1.0000      -0.300173        -8.1681
  74   1.0000      -0.283231        -7.7071
  75   1.0000      -0.279822        -7.6143
  76   1.0000      -0.276357        -7.5200
  77   1.0000      -0.267454        -7.2778
  78   1.0000      -0.219705        -5.9785
  79   0.0000      -0.100886        -2.7453
  80   0.0000      -0.065072        -1.7707
  81   0.0000      -0.055849        -1.5197
  82   0.0000      -0.020801        -0.5660
  83   0.0000      -0.003895        -0.1060

MULLIKEN ATOMIC CHARGES AND SPIN POPULATIONS
--------------------------------------------
   0 C :   -0.142158   -0.000024
   1 C :   -0.162175    0.000961
   2 C :    0.164099    0.000200
   3 C :   -0.241508   -0.000044
   4 C :    0.137209    0.000016
   5 C :   -0.181797   -0.000025
   6 H :    0.149196   -0.000004
   7 H :    0.185556   -0.001380
   8 H :    0.153088   -0.000005
   9 H :    0.164729   -0.000001
  10 N :    0.452720   -0.000000
  11 O :   -0.359454    0.000003
  12 O :   -0.357661    0.000001
  13 C :   -0.151615    0.000075
  14 C :   -0.374893    0.001108
  15 H :    0.135241   -0.000613
  16 H :    0.124796    0.000132
  17 H :    0.120573    0.000175
  18 N :    0.415066   -0.000005
  19 O :   -0.432178    0.000059
  20 O :   -0.439123    0.000006
  21 H :    0.297214    0.000314
  22 C :   -0.219672    0.983667
  23 C :   -0.139309   -0.066755
  24 C :   -0.192936    0.019744
  25 C :   -0.142999   -0.009066
  26 N :   -0.137631    0.017302
  27 C :   -0.129448   -0.054798
  28 H :    0.150970   -0.038884
  29 H :    0.122407    0.006983
  30 H :    0.108589    0.065509
  31 H :    0.121613    0.001855
  32 H :    0.114706    0.004041
  33 H :    0.150421    0.000733
  34 H :    0.147026    0.002480
  35 H :    0.271271    0.004315
  36 H :    0.157534    0.007806
  37 H :    0.151087    0.052945
  38 H :    0.294255   -0.000106
  39 H :    0.323949    0.000090
  40 O :   -0.808756    0.001190
Sum of atomic charges         :   -0.0000000

LOEWDIN ATOMIC CHARGES AND SPIN POPULATIONS
-------------------------------------------
   0 C :   -0.121052    0.000019
   1 C :   -0.076109    0.000062
   2 C :   -0.125347    0.000026
   3 C :   -0.057126    0.000006
   4 C :   -0.160177    0.000004
   5 C :   -0.095196   -0.000004
   6 H :    0.156409    0.000002
   7 H :    0.157272   -0.000028
   8 H :    0.160171    0.000001
   9 H :    0.159101    0.000000
  10 N :   -0.012765    0.000001
  11 O :   -0.056243    0.000003
  12 O :   -0.055366    0.000001
  13 C :   -0.286691    0.000140
  14 C :   -0.284497    0.001653
  15 H :    0.129582    0.000878
  16 H :    0.123346    0.000159
  17 H :    0.123383    0.000108
  18 N :   -0.039305    0.000028
  19 O :   -0.128538    0.000059
  20 O :   -0.134911    0.000005
  21 H :    0.183133    0.000039
  22 C :   -0.124561    0.737744
  23 C :   -0.264535    0.064377
  24 C :   -0.248254    0.015152
  25 C :   -0.237856    0.001554
  26 N :    0.194940    0.015475
  27 C :   -0.255422    0.070644
  28 H :    0.134234    0.001870
  29 H :    0.146068    0.004407
  30 H :    0.152934    0.040269
  31 H :    0.145749    0.000756
  32 H :    0.142799    0.001124
  33 H :    0.143763    0.000758
  34 H :    0.145999    0.000969
  35 H :    0.215540    0.002304
  36 H :    0.149624    0.004960
  37 H :    0.152730    0.032907
  38 H :    0.175215    0.000152
  39 H :    0.132679    0.000073
  40 O :   -0.460718    0.001341

  Mayer bond orders larger than 0.100000
B(  0-C ,  1-C ) :   1.4083 B(  0-C ,  5-C ) :   1.4110 B(  0-C ,  6-H ) :   0.9832
B(  1-C ,  2-C ) :   1.3523 B(  1-C ,  7-H ) :   0.9246 B(  2-C ,  3-C ) :   1.3693
B(  2-C , 13-C ) :   0.9141 B(  3-C ,  4-C ) :   1.3957 B(  3-C ,  8-H ) :   0.9367
B(  4-C ,  5-C ) :   1.3312 B(  4-C , 10-N ) :   1.0050 B(  5-C ,  9-H ) :   0.9507
B( 10-N , 11-O ) :   1.5854 B( 10-N , 12-O ) :   1.5896 B( 11-O , 12-O ) :   0.1882
B( 13-C , 14-C ) :   0.9077 B( 13-C , 18-N ) :   1.0343 B( 13-C , 21-H ) :   0.4512
B( 13-C , 40-O ) :  -0.1466 B( 14-C , 15-H ) :   0.9698 B( 14-C , 16-H ) :   0.9729
B( 14-C , 17-H ) :   0.9643 B( 18-N , 19-O ) :   1.5170 B( 18-N , 20-O ) :   1.5101
B( 19-O , 20-O ) :   0.1280 B( 21-H , 40-O ) :   0.5072 B( 22-C , 23-C ) :   1.0145
B( 22-C , 27-C ) :   1.0398 B( 22-C , 28-H ) :   0.9664 B( 23-C , 24-C ) :   0.9727
B( 23-C , 29-H ) :   0.9626 B( 23-C , 30-H ) :   0.9328 B( 24-C , 25-C ) :   0.9913
B( 24-C , 31-H ) :   0.9642 B( 24-C , 32-H ) :   0.9610 B( 25-C , 26-N ) :   0.9121
B( 25-C , 33-H ) :   0.9547 B( 25-C , 34-H ) :   0.9614 B( 26-N , 27-C ) :   0.9125
B( 26-N , 35-H ) :   0.8863 B( 26-N , 38-H ) :   0.6924 B( 27-C , 36-H ) :   0.9493
B( 27-C , 37-H ) :   0.9452 B( 38-H , 40-O ) :   0.2893 B( 39-H , 40-O ) :   0.8947

Dispersion correction           -0.078933889
FINAL SINGLE POINT ENERGY     -1047.475614240817
Dispersion correction            ... done

DIPOLE MOMENT
-------------
                                X             Y             Z
Electronic contribution:    -11.22646      -9.34062     -34.14402
Nuclear contribution   :      9.76880      11.46991      43.23407
                        -----------------------------------------
Total Dipole Moment    :     -1.45766       2.12928       9.09005
                        -----------------------------------------
Magnitude (a.u.)       :      9.44921
Magnitude (Debye)      :     24.01799

VIBRATIONAL FREQUENCIES
-----------------------

Scaling factor for frequencies =  1.000000000 (already applied!)

   0:         0.00 cm**-1
   1:         0.00 cm**-1
   2:         0.00 cm**-1
   3:         0.00 cm**-1
   4:         0.00 cm**-1
   5:         0.00 cm**-1
   6:     -1251.89 cm**-1 ***imaginary mode***
   7:        13.55 cm**-1
   8:        21.01 cm**-1
   9:        28.88 cm**-1
  10:        41.41 cm**-1
  11:        43.47 cm**-1
  12:        61.48 cm**-1
  13:        71.96 cm**-1
  14:        83.96 cm**-1
  15:        87.01 cm**-1
  16:       100.92 cm**-1
  17:       104.67 cm**-1
  18:       156.04 cm**-1
  19:       173.76 cm**-1
  20:       180.13 cm**-1
  21:       211.14 cm**-1
  22:       230.71 cm**-1
  23:       240.56 cm**-1
  24:       259.16 cm**-1
  25:       299.91 cm**-1
  26:       306.86 cm**-1
  27:       339.79 cm**-1
  28:       355.11 cm**-1
  29:       374.85 cm**-1
  30:       389.80 cm**-1
  31:       406.47 cm**-1
  32:       416.02 cm**-1
  33:       435.32 cm**-1
  34:       463.41 cm**-1
  35:       490.53 cm**-1
  36:       521.10 cm**-1
  37:       538.43 cm**-1
  38:       594.65 cm**-1
  39:       621.10 cm**-1
  40:       645.56 cm**-1
  41:       661.16 cm**-1
  42:       677.96 cm**-1
  43:       700.60 cm**-1
  44:       721.97 cm**-1
  45:       767.28 cm**-1
  46:       789.23 cm**-1
  47:       813.07 cm**-1
  48:       826.07 cm**-1
  49:       833.26 cm**-1
  50:       839.36 cm**-1
  51:       877.42 cm**-1
  52:       890.13 cm**-1
  53:       899.31 cm**-1
  54:       900.99 cm**-1
  55:       927.56 cm**-1
  56:       952.02 cm**-1
  57:       957.00 cm**-1
  58:       981.48 cm**-1
  59:      1001.21 cm**-1
  60:      1023.32 cm**-1
  61:      1033.81 cm**-1
  62:      1051.69 cm**-1
  63:      1061.48 cm**-1
  64:      1075.16 cm**-1
  65:      1092.33 cm**-1
  66:      1117.22 cm**-1
  67:      1121.12 cm**-1
  68:      1123.60 cm**-1
  69:      1126.45 cm**-1
  70:      1138.40 cm**-1
  71:      1152.73 cm**-1
  72:      1192.06 cm**-1
  73:      1220.41 cm**-1
  74:      1269.64 cm**-1
  75:      1270.69 cm**-1
  76:      1314.18 cm**-1
  77:      1330.47 cm**-1
  78:      1345.07 cm**-1
  79:      1352.48 cm**-1
  80:      1355.43 cm**-1
  81:      1356.07 cm**-1
  82:      1368.10 cm**-1
  83:      1369.80 cm**-1
  84:      1394.67 cm**-1
  85:      1407.73 cm**-1
  86:      1409.32 cm**-1
  87:      1424.92 cm**-1
  88:      1436.56 cm**-1
  89:      1437.24 cm**-1
  90:      1453.21 cm**-1
  91:      1465.75 cm**-1
  92:      1469.88 cm**-1
  93:      1471.41 cm**-1
  94:      1483.46 cm**-1
  95:      1485.66 cm**-1
  96:      1497.21 cm**-1
  97:      1508.95 cm**-1
  98:      1537.37 cm**-1
  99:      1542.66 cm**-1
 100:      1575.18 cm**-1
 101:      1612.94 cm**-1
 102:      1648.81 cm**-1
 103:      1690.44 cm**-1
 104:      2095.80 cm**-1
 105:      2922.38 cm**-1
 106:      2992.85 cm**-1
 107:      3026.03 cm**-1
 108:      3034.86 cm**-1
 109:      3065.82 cm**-1
 110:      3073.24 cm**-1
 111:      3088.86 cm**-1
 112:      3096.59 cm**-1
 113:      3107.91 cm**-1
 114:      3122.15 cm**-1
 115:      3124.17 cm**-1
 116:      3188.40 cm**-1
 117:      3194.58 cm**-1
 118:      3205.77 cm**-1
 119:      3233.58 cm**-1
 120:      3237.49 cm**-1
 121:      3456.70 cm**-1
 122:      3787.05 cm**-1

IR SPECTRUM
-----------

 Mode   freq       eps      Int      T**2         TX        TY        TZ
       cm**-1   L/(mol*cm) km/mol    a.u.
----------------------------------------------------------------------------
  7:     13.55   0.000060    0.30  0.001377  (-0.017151  0.032847  0.001917)
  8:     21.01   0.000103    0.52  0.001523  ( 0.008844 -0.016705  0.034147)
  9:     28.88   0.000228    1.15  0.002466  ( 0.013618 -0.038128 -0.028760)
 10:     41.41   0.000241    1.22  0.001812  ( 0.023044  0.019661  0.029914)
 11:     43.47   0.000644    3.26  0.004625  ( 0.044720 -0.023045  0.045764)
 12:     61.48   0.000368    1.86  0.001870  ( 0.017864  0.034120 -0.019654)
 13:     71.96   0.000145    0.73  0.000628  (-0.014872  0.019078  0.006558)
 14:     83.96   0.000318    1.61  0.001182  ( 0.000211  0.012050 -0.032191)
 15:     87.01   0.003808   19.25  0.013659  ( 0.014508  0.097223  0.063217)
 16:    100.92   0.000726    3.67  0.002245  (-0.027705 -0.014392 -0.035639)
 17:    104.67   0.001735    8.77  0.005173  ( 0.043727 -0.027663  0.049962)
 18:    156.04   0.000165    0.83  0.000330  (-0.016998  0.002645  0.005868)
 19:    173.76   0.001422    7.18  0.002553  (-0.022125 -0.023633  0.038795)
 20:    180.13   0.000599    3.03  0.001037  (-0.022807 -0.010976  0.019919)
 21:    211.14   0.000325    1.64  0.000481  (-0.006510  0.001568 -0.020875)
 22:    230.71   0.006290   31.78  0.008507  ( 0.026982  0.061707 -0.063019)
 23:    240.56   0.003350   16.93  0.004345  ( 0.029019 -0.011771  0.058006)
 24:    259.16   0.004445   22.46  0.005353  (-0.037292 -0.025489  0.057551)
 25:    299.91   0.006800   34.37  0.007076  (-0.003463  0.074966 -0.037998)
 26:    306.86   0.000649    3.28  0.000660  ( 0.016064  0.020044  0.000815)
 27:    339.79   0.008241   41.65  0.007569  ( 0.045989  0.073360  0.008482)
 28:    355.11   0.005522   27.91  0.004853  ( 0.054231  0.017071 -0.040255)
 29:    374.85   0.017621   89.05  0.014670  (-0.091072 -0.008981  0.079341)
 30:    389.80   0.000758    3.83  0.000607  (-0.005005  0.023193 -0.006630)
 31:    406.47   0.010590   53.52  0.008130  (-0.015138 -0.082180  0.033878)
 32:    416.02   0.003072   15.52  0.002304  ( 0.003910  0.046292 -0.012083)
 33:    435.32   0.000177    0.89  0.000127  ( 0.002291  0.010818 -0.002113)
 34:    463.41   0.007422   37.51  0.004998  ( 0.000289 -0.050255  0.049722)
 35:    490.53   0.008284   41.86  0.005270  (-0.004107 -0.024235  0.068308)
 36:    521.10   0.002193   11.08  0.001313  (-0.009196  0.035051 -0.000515)
 37:    538.43   0.001256    6.35  0.000728  (-0.023554  0.013166  0.000132)
 38:    594.65   0.005560   28.10  0.002918  (-0.010457  0.052982  0.001072)
 39:    621.10   0.002315   11.70  0.001163  ( 0.033267 -0.005081 -0.005561)
 40:    645.56   0.008112   40.99  0.003921  (-0.006277 -0.060075 -0.016518)
 41:    661.16   0.007291   36.85  0.003441  ( 0.015749 -0.023205 -0.051525)
 42:    677.96   0.011639   58.82  0.005358  ( 0.005717  0.038140  0.062212)
 43:    700.60   0.013899   70.24  0.006191  ( 0.005088 -0.054071  0.056934)
 44:    721.97   0.005723   28.92  0.002474  (-0.041188 -0.024253 -0.013749)
 45:    767.28   0.008247   41.68  0.003354  (-0.006266  0.051680 -0.025379)
 46:    789.23   0.003974   20.08  0.001571  ( 0.014233  0.008343  0.036046)
 47:    813.07   0.000789    3.99  0.000303  (-0.001005  0.002345  0.017217)
 48:    826.07   0.002983   15.07  0.001127  (-0.007422 -0.027940  0.017057)
 49:    833.26   0.002183   11.03  0.000817  ( 0.007667 -0.009597 -0.025818)
 50:    839.36   0.000442    2.23  0.000164  (-0.005218 -0.004041  0.010992)
 51:    877.42   0.000508    2.57  0.000181  ( 0.010270  0.002851  0.008196)
 52:    890.13   0.002392   12.09  0.000838  (-0.014631 -0.014331  0.020470)
 53:    899.31   0.011345   57.33  0.003937  (-0.017908 -0.040990 -0.043998)
 54:    900.99   0.001887    9.54  0.000654  ( 0.007840  0.018274 -0.016066)
 55:    927.56   0.001772    8.96  0.000596  ( 0.007623 -0.016534  0.016271)
 56:    952.02   0.002225   11.24  0.000729  ( 0.025651  0.008200 -0.001994)
 57:    957.00   0.000689    3.48  0.000225  (-0.000367 -0.014958  0.000867)
 58:    981.48   0.002657   13.43  0.000845  (-0.015611  0.007177 -0.023444)
 59:   1001.21   0.000137    0.69  0.000043  ( 0.003417  0.003211 -0.004562)
 60:   1023.32   0.000430    2.18  0.000131  (-0.006520 -0.001992 -0.009208)
 61:   1033.81   0.001208    6.10  0.000365  ( 0.010615  0.015308  0.004189)
 62:   1051.69   0.003397   17.17  0.001008  ( 0.028718 -0.013213  0.002935)
 63:   1061.48   0.001899    9.60  0.000558  (-0.002699 -0.018003 -0.015060)
 64:   1075.16   0.010322   52.16  0.002996  (-0.018371 -0.048438 -0.017667)
 65:   1092.33   0.009181   46.40  0.002623  ( 0.040697 -0.010047 -0.029425)
 66:   1117.22   0.001359    6.87  0.000379  ( 0.013452  0.006418  0.012543)
 67:   1121.12   0.023238  117.44  0.006468  ( 0.048821  0.025553  0.058583)
 68:   1123.60   0.004411   22.29  0.001225  ( 0.006427 -0.001435  0.034377)
 69:   1126.45   0.000952    4.81  0.000264  ( 0.012402  0.005412 -0.008986)
 70:   1138.40   0.002227   11.25  0.000610  ( 0.013137  0.010672 -0.017997)
 71:   1152.73   0.000824    4.16  0.000223  ( 0.014604 -0.002787  0.001419)
 72:   1192.06   0.000428    2.16  0.000112  (-0.002997 -0.005589 -0.008475)
 73:   1220.41   0.000238    1.20  0.000061  (-0.003195 -0.005391  0.004639)
 74:   1269.64   0.001442    7.29  0.000354  (-0.007567 -0.014780  0.008874)
 75:   1270.69   0.004371   22.09  0.001073  ( 0.012776  0.030039 -0.002814)
 76:   1314.18   0.009722   49.13  0.002309  ( 0.013581  0.017644  0.042577)
 77:   1330.47   0.000692    3.50  0.000162  ( 0.008352  0.002371 -0.009327)
 78:   1345.07   0.001039    5.25  0.000241  (-0.009511 -0.012193  0.001418)
 79:   1352.48   0.012505   63.19  0.002885  ( 0.041347  0.018885  0.028619)
 80:   1355.43   0.137697  695.87  0.031702  ( 0.064083  0.087314  0.141323)
 81:   1356.07   0.001139    5.76  0.000262  (-0.004504 -0.006664 -0.014054)
 82:   1368.10   0.030176  152.50  0.006883  ( 0.064014  0.030701 -0.042927)
 83:   1369.80   0.041830  211.39  0.009530  ( 0.072484  0.036419 -0.054308)
 84:   1394.67   0.000334    1.69  0.000075  ( 0.004461 -0.003452  0.006548)
 85:   1407.73   0.003737   18.89  0.000829  ( 0.018313 -0.022122  0.001934)
 86:   1409.32   0.000953    4.82  0.000211  (-0.002767  0.011073 -0.008991)
 87:   1424.92   0.039924  201.76  0.008744  (-0.005998  0.074228 -0.056549)
 88:   1436.56   0.116980  591.17  0.025412  ( 0.145897 -0.020727  0.060794)
 89:   1437.24   0.002030   10.26  0.000441  ( 0.007410 -0.017620  0.008683)
 90:   1453.21   0.002411   12.18  0.000518  ( 0.010437 -0.014929  0.013637)
 91:   1465.75   0.010110   51.09  0.002153  (-0.010187  0.035063 -0.028624)
 92:   1469.88   0.005410   27.34  0.001149  ( 0.013068  0.000490  0.031266)
 93:   1471.41   0.003196   16.15  0.000678  ( 0.009414  0.017406  0.016922)
 94:   1483.46   0.001413    7.14  0.000297  (-0.002131 -0.010093 -0.013816)
 95:   1485.66   0.008092   40.89  0.001700  ( 0.036012 -0.007431 -0.018643)
 96:   1497.21   0.003830   19.35  0.000798  (-0.013804  0.000833  0.024636)
 97:   1508.95   0.022993  116.20  0.004755  ( 0.063819 -0.010167 -0.024060)
 98:   1537.37   0.001590    8.04  0.000323  (-0.015671 -0.008748  0.000847)
 99:   1542.66   0.111198  561.95  0.022494  (-0.147428  0.008214  0.026298)
100:   1575.18   0.006010   30.37  0.001191  ( 0.015734  0.023123 -0.020209)
101:   1612.94   0.002250   11.37  0.000435  ( 0.009044 -0.009720 -0.016096)
102:   1648.81   0.000475    2.40  0.000090  (-0.004106  0.007687  0.003746)
103:   1690.44   0.011590   58.57  0.002140  (-0.023105  0.039671  0.005657)
104:   2095.80   0.717563  3626.27  0.106845  (-0.001444  0.051937 -0.322715)
105:   2922.38   0.008151   41.19  0.000870  ( 0.013901 -0.025955  0.001874)
106:   2992.85   0.004171   21.08  0.000435  ( 0.002784  0.013943  0.015256)
107:   3026.03   0.008668   43.80  0.000894  (-0.010928  0.024484 -0.013229)
108:   3034.86   0.006384   32.26  0.000656  (-0.006927 -0.023102 -0.008649)
109:   3065.82   0.003607   18.23  0.000367  (-0.008173  0.004809  0.016650)
110:   3073.24   0.007067   35.71  0.000718  ( 0.000122  0.000712  0.026779)
111:   3088.86   0.008198   41.43  0.000828  ( 0.027356 -0.008806 -0.001536)
112:   3096.59   0.006344   32.06  0.000639  (-0.001270 -0.014275 -0.020830)
113:   3107.91   0.002429   12.27  0.000244  ( 0.013303  0.000223  0.008177)
114:   3122.15   0.003567   18.03  0.000357  (-0.005061 -0.018179  0.000705)
115:   3124.17   0.005295   26.76  0.000529  ( 0.022456  0.004915 -0.000692)
116:   3188.40   0.001625    8.21  0.000159  ( 0.011439 -0.001360 -0.005133)
117:   3194.58   0.002466   12.46  0.000241  ( 0.013589  0.005182 -0.005419)
118:   3205.77   0.000999    5.05  0.000097  (-0.003784  0.004169  0.008093)
119:   3233.58   0.000805    4.07  0.000078  ( 0.005778  0.003130  0.005874)
120:   3237.49   0.001146    5.79  0.000110  ( 0.004267 -0.002368 -0.009311)
121:   3456.70   0.009813   49.59  0.000886  ( 0.011365 -0.024921 -0.011650)
122:   3787.05   0.007594   38.38  0.000626  ( 0.015518 -0.019349  0.003254)

--------------------------
THERMOCHEMISTRY AT 298.15K
--------------------------

Temperature         ... 298.15 K
Pressure            ... 1.00 atm
Total Mass          ... 298.32 AMU

Throughout the following assumptions are being made:
  (1) The electronic state is orbitally nondegenerate
      but the spin degeneracy is treated
  (2) There are no thermally accessible electronically excited states
  (3) Hindered rotations indicated by low frequency modes are not
      treated as such but are treated as vibrations and this may
      cause some error
  (4) All equations used are the standard statistical mechanics
      equations for an ideal gas
  (5) All vibrations are strictly harmonic

freq.      13.55  E(vib)   ...       0.57
freq.      21.01  E(vib)   ...       0.56
freq.      28.88  E(vib)   ...       0.55
freq.      41.41  E(vib)   ...       0.54
freq.      43.47  E(vib)   ...       0.53
freq.      61.48  E(vib)   ...       0.51
freq.      71.96  E(vib)   ...       0.50
freq.      83.96  E(vib)   ...       0.48
freq.      87.01  E(vib)   ...       0.48
freq.     100.92  E(vib)   ...       0.46
freq.     104.67  E(vib)   ...       0.46
freq.     156.04  E(vib)   ...       0.40
freq.     173.76  E(vib)   ...       0.38
freq.     180.13  E(vib)   ...       0.37
freq.     211.14  E(vib)   ...       0.34
freq.     230.71  E(vib)   ...       0.32
freq.     240.56  E(vib)   ...       0.31
freq.     259.16  E(vib)   ...       0.30
freq.     299.91  E(vib)   ...       0.26
freq.     306.86  E(vib)   ...       0.26
freq.     339.79  E(vib)   ...       0.23
freq.     355.11  E(vib)   ...       0.22
freq.     374.85  E(vib)   ...       0.21
freq.     389.80  E(vib)   ...       0.20
freq.     406.47  E(vib)   ...       0.19
freq.     416.02  E(vib)   ...       0.18
freq.     435.32  E(vib)   ...       0.17
freq.     463.41  E(vib)   ...       0.16
freq.     490.53  E(vib)   ...       0.15
freq.     521.10  E(vib)   ...       0.13
freq.     538.43  E(vib)   ...       0.12
freq.     594.65  E(vib)   ...       0.10
freq.     621.10  E(vib)   ...       0.09
freq.     645.56  E(vib)   ...       0.09
freq.     661.16  E(vib)   ...       0.08
freq.     677.96  E(vib)   ...       0.08
freq.     700.60  E(vib)   ...       0.07
freq.     721.97  E(vib)   ...       0.07
freq.     767.28  E(vib)   ...       0.06
freq.     789.23  E(vib)   ...       0.05
freq.     813.07  E(vib)   ...       0.05
freq.     826.07  E(vib)   ...       0.04
freq.     833.26  E(vib)   ...       0.04
freq.     839.36  E(vib)   ...       0.04
freq.     877.42  E(vib)   ...       0.04
freq.     890.13  E(vib)   ...       0.04
freq.     899.31  E(vib)   ...       0.03
freq.     900.99  E(vib)   ...       0.03
freq.     927.56  E(vib)   ...       0.03
freq.     952.02  E(vib)   ...       0.03
freq.     957.00  E(vib)   ...       0.03
freq.     981.48  E(vib)   ...       0.02
freq.    1001.21  E(vib)   ...       0.02
freq.    1023.32  E(vib)   ...       0.02
freq.    1033.81  E(vib)   ...       0.02
freq.    1051.69  E(vib)   ...       0.02
freq.    1061.48  E(vib)   ...       0.02
freq.    1075.16  E(vib)   ...       0.02
freq.    1092.33  E(vib)   ...       0.02
freq.    1117.22  E(vib)   ...       0.01
freq.    1121.12  E(vib)   ...       0.01
freq.    1123.60  E(vib)   ...       0.01
freq.    1126.45  E(vib)   ...       0.01
freq.    1138.40  E(vib)   ...       0.01
freq.    1152.73  E(vib)   ...       0.01
freq.    1192.06  E(vib)   ...       0.01
freq.    1220.41  E(vib)   ...       0.01
freq.    1269.64  E(vib)   ...       0.01
freq.    1270.69  E(vib)   ...       0.01
freq.    1314.18  E(vib)   ...       0.01
freq.    1330.47  E(vib)   ...       0.01
freq.    1345.07  E(vib)   ...       0.01
freq.    1352.48  E(vib)   ...       0.01
freq.    1355.43  E(vib)   ...       0.01
freq.    1356.07  E(vib)   ...       0.01
freq.    1368.10  E(vib)   ...       0.01
freq.    1369.80  E(vib)   ...       0.01
freq.    1394.67  E(vib)   ...       0.00
freq.    1407.73  E(vib)   ...       0.00
freq.    1409.32  E(vib)   ...       0.00
freq.    1424.92  E(vib)   ...       0.00
freq.    1436.56  E(vib)   ...       0.00
freq.    1437.24  E(vib)   ...       0.00
freq.    1453.21  E(vib)   ...       0.00
freq.    1465.75  E(vib)   ...       0.00
freq.    1469.88  E(vib)   ...       0.00
freq.    1471.41  E(vib)   ...       0.00
freq.    1483.46  E(vib)   ...       0.00
freq.    1485.66  E(vib)   ...       0.00
freq.    1497.21  E(vib)   ...       0.00
freq.    1508.95  E(vib)   ...       0.00
freq.    1537.37  E(vib)   ...       0.00
freq.    1542.66  E(vib)   ...       0.00
freq.    1575.18  E(vib)   ...       0.00
freq.    1612.94  E(vib)   ...       0.00
freq.    1648.81  E(vib)   ...       0.00
freq.    1690.44  E(vib)   ...       0.00
freq.    2095.80  E(vib)   ...       0.00
freq.    2922.38  E(vib)   ...       0.00
freq.    2992.85  E(vib)   ...       0.00
freq.    3026.03  E(vib)   ...       0.00
freq.    3034.86  E(vib)   ...       0.00
freq.    3065.82  E(vib)   ...       0.00
freq.    3073.24  E(vib)   ...       0.00
freq.    3088.86  E(vib)   ...       0.00
freq.    3096.59  E(vib)   ...       0.00
freq.    3107.91  E(vib)   ...       0.00
freq.    3122.15  E(vib)   ...       0.00
freq.    3124.17  E(vib)   ...       0.00
freq.    3188.40  E(vib)   ...       0.00
freq.    3194.58  E(vib)   ...       0.00
freq.    3205.77  E(vib)   ...       0.00
freq.    3233.58  E(vib)   ...       0.00
freq.    3237.49  E(vib)   ...       0.00
freq.    3456.70  E(vib)   ...       0.00
freq.    3787.05  E(vib)   ...       0.00

------------
INNER ENERGY
------------

The inner energy is: U= E(el) + E(ZPE) + E(vib) + E(rot) + E(trans)
    E(el)   - is the total energy from the electronic structure calculation
              = E(kin-el) + E(nuc-el) + E(el-el) + E(nuc-nuc)
    E(ZPE)  - the the zero temperature vibrational energy from the frequency calculation
    E(vib)  - the the finite temperature correction to E(ZPE) due to population
              of excited vibrational states
    E(rot)  - is the rotational thermal energy
    E(trans)- is the translational thermal energy

Summary of contributions to the inner energy U:
Electronic energy                ...  -1047.47561424 Eh
Zero point energy                ...      0.32622249 Eh     204.71 kcal/mol
Thermal vibrational correction   ...      0.01916768 Eh      12.03 kcal/mol
Thermal rotational correction    ...      0.00141627 Eh       0.89 kcal/mol
Thermal translational correction ...      0.00141627 Eh       0.89 kcal/mol
-----------------------------------------------------------------------
Total thermal energy                  -1047.12739152 Eh

Summary of corrections to the electronic energy:
(perhaps to be used in another calculation)
Total thermal correction                  0.02200022 Eh      13.81 kcal/mol

Rotational constants in cm-1:     0.017629     0.004369     0.003771

                             ****ORCA TERMINATED NORMALLY****
TOTAL RUN TIME: 0 days 2 hours 9 minutes 16 seconds 832 msec
