                         Program Version 5.0.4 -  RELEASE  -
|  1> !  opt B3LYP def2-TZVP CPCM D3
|  2> %pal nprocs 102 end
|  3> %cpcm epsilon 78.4 end
|  4> *xyz -1 1
|  5> C   0.50386005 -0.824864 0.69608122
|  6> H   1.05537301 -1.68769307 0.37046437
|  7> H   2.251026 0.47923159 0.3333236
|  8> H   0.51444158 -0.62939704 1.75236591
|  9> N   -0.20512456 -0.0936515 -0.13880216
| 10> O   -0.85817092 0.91458428 0.25463463
| 11> O   -0.24969895 -0.35058148 -1.37586016
| 12> C   5.99910852 0.32063898 -0.6063833
| 13> O   7.07716908 -0.02034138 -1.04047139
| 14> O   5.01180749 -0.57601212 -0.58689411
| 15> C   5.68597616 1.69080594 -0.07474958
| 16> Cl   5.82939698 1.58786992 1.68560676
| 17> H   4.65701456 2.03628898 -0.32000545
| 18> H   6.39555004 2.45963189 -0.43879567
| 19> H   2.9393566 -0.21343456 1.52736729
| 20> O   3.10239569 0.42106008 0.80473485
| 21> H   4.14422363 -0.23843602 -0.09274323
| 22> *
| 23>
| 24>                          ****END OF INPUT****
 Total Charge           Charge          ....   -1
 Multiplicity           Mult            ....    1
 Number of Electrons    NEL             ....   90
 Basis Dimension        Dim             ....  358

ORBITAL ENERGIES
----------------

  NO   OCC          E(Eh)            E(eV)
   0   2.0000    -101.522470     -2762.5669
   1   2.0000     -19.150093      -521.1005
   2   2.0000     -19.149161      -521.0752
   3   2.0000     -19.113590      -520.1072
   4   2.0000     -19.073699      -519.0217
   5   2.0000     -19.073506      -519.0165
   6   2.0000     -14.476982      -393.9387
   7   2.0000     -10.307628      -280.4848
   8   2.0000     -10.237963      -278.5891
   9   2.0000     -10.154978      -276.3310
  10   2.0000      -9.455115      -257.2868
  11   2.0000      -7.216798      -196.3791
  12   2.0000      -7.208043      -196.1408
  13   2.0000      -7.207721      -196.1321
  14   2.0000      -1.145118       -31.1602
  15   2.0000      -1.094624       -29.7862
  16   2.0000      -1.036025       -28.1917
  17   2.0000      -1.005093       -27.3500
  18   2.0000      -0.957677       -26.0597
  19   2.0000      -0.870831       -23.6965
  20   2.0000      -0.785024       -21.3616
  21   2.0000      -0.709070       -19.2948
  22   2.0000      -0.601204       -16.3596
  23   2.0000      -0.558361       -15.1938
  24   2.0000      -0.546814       -14.8796
  25   2.0000      -0.529564       -14.4102
  26   2.0000      -0.486044       -13.2259
  27   2.0000      -0.482321       -13.1246
  28   2.0000      -0.472234       -12.8501
  29   2.0000      -0.469847       -12.7852
  30   2.0000      -0.467054       -12.7092
  31   2.0000      -0.448188       -12.1958
  32   2.0000      -0.413930       -11.2636
  33   2.0000      -0.404287       -11.0012
  34   2.0000      -0.386781       -10.5249
  35   2.0000      -0.380683       -10.3589
  36   2.0000      -0.341139        -9.2829
  37   2.0000      -0.320036        -8.7086
  38   2.0000      -0.316227        -8.6050
  39   2.0000      -0.302251        -8.2247
  40   2.0000      -0.281202        -7.6519
  41   2.0000      -0.271506        -7.3881
  42   2.0000      -0.255520        -6.9530
  43   2.0000      -0.226118        -6.1530
  44   2.0000      -0.195736        -5.3262
  45   0.0000      -0.025290        -0.6882
  46   0.0000       0.005589         0.1521
  47   0.0000       0.035902         0.9769
  48   0.0000       0.052006         1.4151
  49   0.0000       0.089387         2.4324

MULLIKEN ATOMIC CHARGES
-----------------------
   0 C :   -0.524581
   1 H :    0.148647
   2 H :    0.404120
   3 H :    0.147337
   4 N :    0.426460
   5 O :   -0.604967
   6 O :   -0.604608
   7 C :    0.290649
   8 O :   -0.396885
   9 O :   -0.417741
  10 C :   -0.135568
  11 Cl:   -0.164687
  12 H :    0.171654
  13 H :    0.170687
  14 H :    0.373796
  15 O :   -0.646611
  16 H :    0.362299
Sum of atomic charges:   -1.0000000

LOEWDIN ATOMIC CHARGES
----------------------
   0 C :   -0.427431
   1 H :    0.101981
   2 H :    0.173994
   3 H :    0.101989
   4 N :   -0.130985
   5 O :   -0.306264
   6 O :   -0.306417
   7 C :   -0.580662
   8 O :    0.040644
   9 O :    0.059543
  10 C :   -0.465947
  11 Cl:    0.295779
  12 H :    0.144240
  13 H :    0.144203
  14 H :    0.184408
  15 O :   -0.209336
  16 H :    0.180260

  Mayer bond orders larger than 0.100000
B(  0-C ,  1-H ) :   0.9551 B(  0-C ,  3-H ) :   0.9583 B(  0-C ,  4-N ) :   1.4671
B(  0-C ,  5-O ) :   0.1966 B(  0-C ,  6-O ) :   0.1972 B(  2-H , 15-O ) :   0.8357
B(  4-N ,  5-O ) :   1.3077 B(  4-N ,  6-O ) :   1.3068 B(  7-C ,  8-O ) :   2.0295
B(  7-C ,  9-O ) :   1.2935 B(  7-C , 10-C ) :   0.9519 B(  9-O , 16-H ) :   0.6972
B( 10-C , 11-Cl) :   0.9932 B( 10-C , 12-H ) :   0.9363 B( 10-C , 13-H ) :   0.9455
B( 14-H , 15-O ) :   0.8561 B( 15-O , 16-H ) :   0.2180

Dispersion correction           -0.022681412
FINAL SINGLE POINT ENERGY     -1009.614967718479
Dispersion correction            ... done
Dispersion correction           -0.021873491
FINAL SINGLE POINT ENERGY     -1009.622014290091
Dispersion correction            ... done
Dispersion correction           -0.021781967
FINAL SINGLE POINT ENERGY     -1009.624213392229
Dispersion correction            ... done
FINAL SINGLE POINT ENERGY     -1009.625134125765
FINAL SINGLE POINT ENERGY     -1009.625789714063
FINAL SINGLE POINT ENERGY     -1009.625889428421
FINAL SINGLE POINT ENERGY     -1009.626156349566
FINAL SINGLE POINT ENERGY     -1009.626268625303
FINAL SINGLE POINT ENERGY     -1009.626208571301
FINAL SINGLE POINT ENERGY     -1009.626473697787
FINAL SINGLE POINT ENERGY     -1009.633264305032
FINAL SINGLE POINT ENERGY     -1009.633320215000
FINAL SINGLE POINT ENERGY     -1009.633397607894
FINAL SINGLE POINT ENERGY     -1009.633487978604
FINAL SINGLE POINT ENERGY     -1009.633541884386
FINAL SINGLE POINT ENERGY     -1009.633593516601
FINAL SINGLE POINT ENERGY     -1009.633625057379
Dispersion correction           -0.025066177
FINAL SINGLE POINT ENERGY     -1009.633657553319
Dispersion correction            ... done
Dispersion correction           -0.025113587
FINAL SINGLE POINT ENERGY     -1009.633686936797
Dispersion correction            ... done

CARTESIAN COORDINATES (ANGSTROEM)
---------------------------------
  C      0.771069   -0.477079    0.277501
  H      0.911317   -1.506519   -0.004539
  H      2.369453   -0.311938    1.590100
  H      0.113539   -0.154374    1.067590
  N      1.291926    0.454756   -0.518493
  O      1.113612    1.701683   -0.276237
  O      2.011513    0.126597   -1.528742
  C      5.095740    0.126283   -0.810496
  O      5.676064   -0.096771   -1.851348
  O      4.850138   -0.842359    0.055675
  C      4.651438    1.528510   -0.431286
  Cl     5.806673    2.190003    0.804835
  H      3.661456    1.559218    0.009223
  H      4.710213    2.175579   -1.298569
  H      3.277697   -0.553403    2.836968
  O      3.244026   -0.097778    1.986134
  H      4.297831   -0.546709    0.841559

Dispersion correction           -0.025145279
FINAL SINGLE POINT ENERGY     -1009.633721538718
Dispersion correction            ... done

DIPOLE MOMENT
-------------
                                X             Y             Z
Electronic contribution:      9.59161       5.08211      -0.43775
Nuclear contribution   :     -9.03466      -5.72372       3.93568
                        -----------------------------------------
Total Dipole Moment    :      0.55695      -0.64161       3.49793
                        -----------------------------------------
Magnitude (a.u.)       :      3.59963
Magnitude (Debye)      :      9.14954

Rotational constants in cm-1:     0.043592     0.020802     0.019103
Rotational constants in MHz :  1306.853471   623.630153   572.699974

                             ****ORCA TERMINATED NORMALLY****
TOTAL RUN TIME: 0 days 0 hours 50 minutes 8 seconds 773 msec
