                         Program Version 5.0.4 -  RELEASE  -
|  1> !  opt B3LYP def2-TZVP CPCM D3
|  2> %pal nprocs 102 end
|  3> %cpcm epsilon 78.4 end
|  4> *xyz -1 1
|  5> C   0.57973994 -0.76362469 0.69813387
|  6> H   1.17293621 -1.12859217 -0.16894498
|  7> H   0.73605111 0.33785492 0.76576871
|  8> H   0.97374709 -1.23324771 1.6223133
|  9> N   -0.83995426 -1.03657934 0.52491079
| 10> O   -1.50837471 -1.35701815 1.49631575
| 11> O   -1.33425465 -0.9197189 -0.58774774
| 12> C   5.69815585 0.38047125 0.14629882
| 13> O   5.72489782 0.30285292 -1.0962628
| 14> O   5.7952315 -0.59284346 0.9112164
| 15> C   5.55624779 1.78459916 0.72491847
| 16> Cl   6.07210729 1.7999353 2.42551792
| 17> H   4.50299831 2.11974537 0.69821107
| 18> H   6.18176326 2.51574147 0.18721436
| 19> H   2.67468839 0.6110164 1.61738584
| 20> O   3.03161126 0.33785492 0.76576871
| 21> H   3.59715137 -0.41810632 0.97617468
| 22> *
| 23>
| 24>                          ****END OF INPUT****
 Total Charge           Charge          ....   -1
 Multiplicity           Mult            ....    1
 Number of Electrons    NEL             ....   90
 Basis Dimension        Dim             ....  358

ORBITAL ENERGIES
----------------

  NO   OCC          E(Eh)            E(eV)
   0   2.0000    -101.497695     -2761.8927
   1   2.0000     -19.166426      -521.5450
   2   2.0000     -19.165539      -521.5208
   3   2.0000     -19.113676      -520.1096
   4   2.0000     -19.053097      -518.4611
   5   2.0000     -19.052813      -518.4534
   6   2.0000     -14.555925      -396.0869
   7   2.0000     -10.243918      -278.7512
   8   2.0000     -10.219161      -278.0775
   9   2.0000     -10.204439      -277.6769
  10   2.0000      -9.430627      -256.6204
  11   2.0000      -7.191646      -195.6946
  12   2.0000      -7.183813      -195.4815
  13   2.0000      -7.183656      -195.4772
  14   2.0000      -1.241585       -33.7852
  15   2.0000      -1.061672       -28.8896
  16   2.0000      -1.026347       -27.9283
  17   2.0000      -1.002975       -27.2923
  18   2.0000      -0.929867       -25.3030
  19   2.0000      -0.839735       -22.8503
  20   2.0000      -0.816619       -22.2213
  21   2.0000      -0.671371       -18.2689
  22   2.0000      -0.619853       -16.8671
  23   2.0000      -0.553499       -15.0615
  24   2.0000      -0.545694       -14.8491
  25   2.0000      -0.530791       -14.4436
  26   2.0000      -0.522373       -14.2145
  27   2.0000      -0.499720       -13.5981
  28   2.0000      -0.452205       -12.3051
  29   2.0000      -0.434281       -11.8174
  30   2.0000      -0.425029       -11.5656
  31   2.0000      -0.421416       -11.4673
  32   2.0000      -0.406888       -11.0720
  33   2.0000      -0.388198       -10.5634
  34   2.0000      -0.381275       -10.3750
  35   2.0000      -0.365273        -9.9396
  36   2.0000      -0.330819        -9.0020
  37   2.0000      -0.327417        -8.9095
  38   2.0000      -0.304709        -8.2916
  39   2.0000      -0.301324        -8.1994
  40   2.0000      -0.297412        -8.0930
  41   2.0000      -0.286393        -7.7932
  42   2.0000      -0.247937        -6.7467
  43   2.0000      -0.242669        -6.6034
  44   2.0000      -0.223225        -6.0743
  45   0.0000      -0.081236        -2.2105
  46   0.0000       0.027745         0.7550
  47   0.0000       0.040085         1.0908
  48   0.0000       0.063486         1.7275
  49   0.0000       0.079642         2.1672

MULLIKEN ATOMIC CHARGES
-----------------------
   0 C :   -0.292824
   1 H :    0.174412
   2 H :    0.183036
   3 H :    0.170544
   4 N :    0.445497
   5 O :   -0.356823
   6 O :   -0.357349
   7 C :    0.249615
   8 O :   -0.565168
   9 O :   -0.556394
  10 C :   -0.176865
  11 Cl:   -0.235407
  12 H :    0.151425
  13 H :    0.134889
  14 H :    0.350891
  15 O :   -0.665601
  16 H :    0.346120
Sum of atomic charges:   -1.0000000

LOEWDIN ATOMIC CHARGES
----------------------
   0 C :   -0.290091
   1 H :    0.143520
   2 H :    0.152947
   3 H :    0.139183
   4 N :   -0.069658
   5 O :   -0.063446
   6 O :   -0.066459
   7 C :   -0.767722
   8 O :   -0.117379
   9 O :   -0.118265
  10 C :   -0.495416
  11 Cl:    0.216520
  12 H :    0.130673
  13 H :    0.126039
  14 H :    0.166916
  15 O :   -0.250978
  16 H :    0.163616

  Mayer bond orders larger than 0.100000
B(  0-C ,  1-H ) :   0.9427 B(  0-C ,  2-H ) :   0.9273 B(  0-C ,  3-H ) :   0.9485
B(  0-C ,  4-N ) :   0.8826 B(  4-N ,  5-O ) :   1.6008 B(  4-N ,  6-O ) :   1.5954
B(  5-O ,  6-O ) :   0.2079 B(  7-C ,  8-O ) :   1.8385 B(  7-C ,  9-O ) :   1.8179
B(  7-C , 10-C ) :   0.9143 B( 10-C , 11-Cl) :   1.0073 B( 10-C , 12-H ) :   0.9431
B( 10-C , 13-H ) :   0.9549 B( 14-H , 15-O ) :   0.8818 B( 15-O , 16-H ) :   0.8596

Dispersion correction           -0.021889082
FINAL SINGLE POINT ENERGY     -1009.632380850507
Dispersion correction            ... done
Dispersion correction           -0.021578362
FINAL SINGLE POINT ENERGY     -1009.639864643549
Dispersion correction            ... done
Dispersion correction           -0.021343307
FINAL SINGLE POINT ENERGY     -1009.642617057107
Dispersion correction            ... done
FINAL SINGLE POINT ENERGY     -1009.644457979729
FINAL SINGLE POINT ENERGY     -1009.645813538252
FINAL SINGLE POINT ENERGY     -1009.646943117579
FINAL SINGLE POINT ENERGY     -1009.648011802901
FINAL SINGLE POINT ENERGY     -1009.649030929788
FINAL SINGLE POINT ENERGY     -1009.650006514098
FINAL SINGLE POINT ENERGY     -1009.650914194131
FINAL SINGLE POINT ENERGY     -1009.656220305060
FINAL SINGLE POINT ENERGY     -1009.656236549243
FINAL SINGLE POINT ENERGY     -1009.656246021964
FINAL SINGLE POINT ENERGY     -1009.656318986831
FINAL SINGLE POINT ENERGY     -1009.656418162606
FINAL SINGLE POINT ENERGY     -1009.656442907366
FINAL SINGLE POINT ENERGY     -1009.656642506809
Dispersion correction           -0.021060873
FINAL SINGLE POINT ENERGY     -1009.656587547462
Dispersion correction            ... done
Dispersion correction           -0.021265148
FINAL SINGLE POINT ENERGY     -1009.656856678962
Dispersion correction            ... done

CARTESIAN COORDINATES (ANGSTROEM)
---------------------------------
  C      0.584899   -0.766026    0.804127
  H      0.984614   -1.352302   -0.015586
  H      0.128677    0.148295    0.428841
  H      1.324919   -0.541203    1.563078
  N     -0.513197   -1.555172    1.435664
  O     -0.672560   -1.458131    2.642329
  O     -1.215041   -2.237429    0.705011
  C      5.877605    0.677635   -0.096550
  O      7.052696    0.847153   -0.485350
  O      4.907105    0.249545   -0.768455
  C      5.689152    1.071907    1.379718
  Cl     4.075539    0.676793    2.115291
  H      5.819221    2.146128    1.488855
  H      6.427943    0.557287    1.987175
  H      2.322119    1.775901    0.094429
  O      2.481453    1.492340   -0.813593
  H      3.339599    1.007620   -0.757789

Dispersion correction           -0.021223981
FINAL SINGLE POINT ENERGY     -1009.656967761095
Dispersion correction            ... done

DIPOLE MOMENT
-------------
                                X             Y             Z
Electronic contribution:     -1.32349      -3.39609       5.61194
Nuclear contribution   :     -1.65336       2.66749      -2.80180
                        -----------------------------------------
Total Dipole Moment    :     -2.97685      -0.72860       2.81014
                        -----------------------------------------
Magnitude (a.u.)       :      4.15805
Magnitude (Debye)      :     10.56892

Rotational constants in cm-1:     0.059522     0.010608     0.009766
Rotational constants in MHz :  1784.412815   318.023192   292.766832

                             ****ORCA TERMINATED NORMALLY****
TOTAL RUN TIME: 0 days 0 hours 49 minutes 0 seconds 954 msec
