                         Program Version 5.0.4 -  RELEASE  -
|  1> !  opt B3LYP def2-TZVP CPCM D3
|  2> %pal nprocs 102 end
|  3> %cpcm epsilon 78.4 end
|  4> *xyz 0 1
|  5> C   0.3696058 -0.43282024 0.20771834
|  6> H   0.54574421 -1.06847541 -0.66769437
|  7> N   0.62851876 -2.39602143 1.6156431
|  8> O   0.74820859 -3.15268855 0.61942385
|  9> O   0.66572469 -2.93529602 2.75477189
| 10> H   -0.12564486 1.52722579 0.89486771
| 11> C   0.47364235 -1.07500223 1.49461671
| 12> H   2.49599473 -0.52968116 1.93132783
| 13> H   0.35990392 -0.48022389 2.3974101
| 14> C   0.05540143 0.86138972 0.0686538
| 15> H   -0.03757106 1.35067156 -0.88515838
| 16> C   5.9286206 0.72825562 3.84438639
| 17> C   6.97772279 1.51350732 4.31346615
| 18> C   6.93185338 2.89678341 4.13803866
| 19> C   5.82992624 3.46816033 3.50139292
| 20> C   4.79920256 2.65003586 3.04553635
| 21> N   4.86383275 1.30292205 3.22120551
| 22> H   5.91888647 -0.37182352 3.95799855
| 23> H   7.82950682 1.03937404 4.81222973
| 24> H   5.76765699 4.55126282 3.35451926
| 25> H   3.90628008 3.05426492 2.53499659
| 26> H   7.75351858 3.52704526 4.49584799
| 27> H   3.70486377 -1.35246485 2.40983797
| 28> H   4.09001468 0.67943504 2.83380509
| 29> O   3.47355191 -0.52818733 1.94786833
| 30> *
| 31>
| 32>                          ****END OF INPUT****
 Total Charge           Charge          ....    0
 Multiplicity           Mult            ....    1
 Number of Electrons    NEL             ....   98
Dispersion correction           -0.036866809
FINAL SINGLE POINT ENERGY      -647.076407527770
Dispersion correction            ... done
Dispersion correction           -0.036895122
FINAL SINGLE POINT ENERGY      -647.082112370489
Dispersion correction            ... done
Dispersion correction           -0.036880621
FINAL SINGLE POINT ENERGY      -647.083374820799
Dispersion correction            ... done
FINAL SINGLE POINT ENERGY      -647.084051371088
FINAL SINGLE POINT ENERGY      -647.084386165517
FINAL SINGLE POINT ENERGY      -647.084610707870
FINAL SINGLE POINT ENERGY      -647.084845625536
FINAL SINGLE POINT ENERGY      -647.083892151945
FINAL SINGLE POINT ENERGY      -647.084531312605
FINAL SINGLE POINT ENERGY      -647.067384788251
FINAL SINGLE POINT ENERGY      -647.086928089669
FINAL SINGLE POINT ENERGY      -647.086930812561
FINAL SINGLE POINT ENERGY      -647.086935767968
FINAL SINGLE POINT ENERGY      -647.086946749248
FINAL SINGLE POINT ENERGY      -647.086961042890
FINAL SINGLE POINT ENERGY      -647.086971853204
FINAL SINGLE POINT ENERGY      -647.086976796745
Dispersion correction            ... done
Dispersion correction           -0.039026331
FINAL SINGLE POINT ENERGY      -647.086979665585
Dispersion correction            ... done
Dispersion correction           -0.039023403
FINAL SINGLE POINT ENERGY      -647.086980645589
Dispersion correction            ... done
                    ***********************HURRAY********************

CARTESIAN COORDINATES (ANGSTROEM)
---------------------------------
  C      0.534437   -0.051248    1.427538
  H     -0.019023   -0.246655    0.515773
  N      1.049732   -2.432334    1.524904
  O      0.394742   -2.666996    0.456917
  O      1.615033   -3.405642    2.134312
  H      1.129627    1.449413    2.812835
  C      1.175031   -1.183858    2.016857
  H      2.957805   -0.832524    0.964082
  H      1.709534   -1.123088    2.952519
  C      0.586682    1.206191    1.906588
  H      0.081660    2.017337    1.399975
  C      4.283483    1.256194    3.579431
  C      4.754856    2.131308    4.535577
  C      5.878461    2.899230    4.248486
  C      6.507623    2.772406    3.014333
  C      5.994825    1.883311    2.092860
  N      4.907744    1.160160    2.397209
  H      3.420178    0.623377    3.719209
  H      4.247470    2.205339    5.486078
  H      7.383311    3.353560    2.765428
  H      6.420176    1.724902    1.112921
  H      6.264052    3.591990    4.984618
  H      4.320906   -1.410813    0.516815
  H      4.529111    0.488951    1.688145
  O      3.827508   -0.582862    0.589303

 Multiplicity           Mult            ....    1
 Number of Electrons    NEL             ....   98
 Basis Dimension        Dim             ....  475

ORBITAL ENERGIES
----------------

  NO   OCC          E(Eh)            E(eV)
   0   2.0000     -19.141520      -520.8673
   1   2.0000     -19.090614      -519.4820
   2   2.0000     -19.088863      -519.4344
   3   2.0000     -14.484538      -394.1443
   4   2.0000     -14.413961      -392.2238
   5   2.0000     -10.255518      -279.0668
   6   2.0000     -10.254995      -279.0526
   7   2.0000     -10.223003      -278.1820
   8   2.0000     -10.212397      -277.8934
   9   2.0000     -10.212255      -277.8896
  10   2.0000     -10.174268      -276.8559
  11   2.0000     -10.169856      -276.7359
  12   2.0000     -10.148114      -276.1442
  13   2.0000      -1.142995       -31.1025
  14   2.0000      -1.030529       -28.0421
  15   2.0000      -1.019767       -27.7493
  16   2.0000      -0.965706       -26.2782
  17   2.0000      -0.849506       -23.1162
  18   2.0000      -0.813102       -22.1256
  19   2.0000      -0.812480       -22.1087
  20   2.0000      -0.739515       -20.1232
  21   2.0000      -0.681372       -18.5411
  22   2.0000      -0.680778       -18.5249
  23   2.0000      -0.606080       -16.4923
  24   2.0000      -0.597131       -16.2488
  25   2.0000      -0.544330       -14.8120
  26   2.0000      -0.535121       -14.5614
  27   2.0000      -0.529715       -14.4143
  28   2.0000      -0.518819       -14.1178
  29   2.0000      -0.500688       -13.6244
  30   2.0000      -0.492722       -13.4077
  31   2.0000      -0.475304       -12.9337
  32   2.0000      -0.472460       -12.8563
  33   2.0000      -0.471432       -12.8283
  34   2.0000      -0.461330       -12.5534
  35   2.0000      -0.417850       -11.3703
  36   2.0000      -0.415012       -11.2930
  37   2.0000      -0.411042       -11.1850
  38   2.0000      -0.402206       -10.9446
  39   2.0000      -0.392099       -10.6696
  40   2.0000      -0.348642        -9.4870
  41   2.0000      -0.337224        -9.1763
  42   2.0000      -0.333785        -9.0828
  43   2.0000      -0.305236        -8.3059
  44   2.0000      -0.301227        -8.1968
  45   2.0000      -0.276555        -7.5255
  46   2.0000      -0.266104        -7.2411
  47   2.0000      -0.241631        -6.5751
  48   2.0000      -0.185647        -5.0517
  49   0.0000      -0.082299        -2.2395
  50   0.0000      -0.050853        -1.3838
  51   0.0000      -0.030106        -0.8192
  52   0.0000       0.026877         0.7314
  53   0.0000       0.051504         1.4015

MULLIKEN ATOMIC CHARGES
-----------------------
   0 C :   -0.108009
   1 H :    0.124669
   2 N :    0.409563
   3 O :   -0.559222
   4 O :   -0.571802
   5 H :    0.129254
   6 C :   -0.321745
   7 H :    0.384006
   8 H :    0.163547
   9 C :   -0.392460
  10 H :    0.134125
  11 C :   -0.000211
  12 C :   -0.109446
  13 C :   -0.079440
  14 C :   -0.108569
  15 C :    0.011750
  16 N :   -0.073831
  17 H :    0.224390
  18 H :    0.183171
  19 H :    0.183624
  20 H :    0.205854
  21 H :    0.182804
  22 H :    0.373304
  23 H :    0.295966
  24 O :   -0.681292
Sum of atomic charges:   -0.0000000

LOEWDIN ATOMIC CHARGES
----------------------
   0 C :   -0.250526
   1 H :    0.144869
   2 N :   -0.069572
   3 O :   -0.272195
   4 O :   -0.288940
   5 H :    0.117376
   6 C :   -0.323514
   7 H :    0.164015
   8 H :    0.134611
   9 C :   -0.269949
  10 H :    0.117983
  11 C :   -0.100383
  12 C :   -0.096453
  13 C :   -0.052752
  14 C :   -0.097098
  15 C :   -0.097392
  16 N :    0.274942
  17 H :    0.164712
  18 H :    0.168543
  19 H :    0.168366
  20 H :    0.167269
  21 H :    0.167930
  22 H :    0.182633
  23 H :    0.208053
  24 O :   -0.262528

  Mayer bond orders larger than 0.100000
B(  0-C ,  1-H ) :   0.9443 B(  0-C ,  6-C ) :   1.1645 B(  0-C ,  9-C ) :   1.7231
B(  2-N ,  3-O ) :   1.3771 B(  2-N ,  4-O ) :   1.3197 B(  2-N ,  6-C ) :   1.3760
B(  4-O ,  6-C ) :   0.1240 B(  5-H ,  9-C ) :   0.9713 B(  6-C ,  8-H ) :   0.9425
B(  7-H , 24-O ) :   0.8400 B(  9-C , 10-H ) :   0.9751 B( 11-C , 12-C ) :   1.4508
B( 11-C , 16-N ) :   1.3080 B( 11-C , 17-H ) :   0.9201 B( 12-C , 13-C ) :   1.3999
B( 12-C , 18-H ) :   0.9495 B( 13-C , 14-C ) :   1.3990 B( 13-C , 21-H ) :   0.9444
B( 14-C , 15-C ) :   1.4539 B( 14-C , 19-H ) :   0.9478 B( 15-C , 16-N ) :   1.3137
B( 15-C , 20-H ) :   0.9329 B( 16-N , 23-H ) :   0.7858 B( 22-H , 24-O ) :   0.8640
B( 23-H , 24-O ) :   0.1546

Dispersion correction           -0.039022129
FINAL SINGLE POINT ENERGY      -647.086981585485

DIPOLE MOMENT
-------------
                                X             Y             Z
Electronic contribution:      2.63577      -2.98819       0.89816
Nuclear contribution   :      4.52844       9.85455       2.07277
                        -----------------------------------------
Total Dipole Moment    :      7.16420       6.86636       2.97092
                        -----------------------------------------
Magnitude (a.u.)       :     10.35853
Magnitude (Debye)      :     26.32929

Rotational constants in cm-1:     0.047658     0.009513     0.009067
Rotational constants in MHz :  1428.755048   285.197039   271.810010

                             ****ORCA TERMINATED NORMALLY****
TOTAL RUN TIME: 0 days 1 hours 3 minutes 59 seconds 357 msec
