                         Program Version 5.0.4 -  RELEASE  -
|  1> !  opt B3LYP def2-TZVP CPCM D3
|  2> %pal nprocs 102 end
|  3> %cpcm epsilon 78.4 end
|  4> *xyz 0 1
|  5> C   3.51104682 2.2897106 -0.85816257
|  6> C   3.27960424 1.02890665 -0.31744191
|  7> C   2.4893087 0.0871802 -0.99767657
|  8> C   1.92761433 0.43819069 -2.23387714
|  9> C   2.18600565 1.69760324 -2.74465363
| 10> C   2.96539027 2.64189849 -2.09404758
| 11> H   4.13001473 3.00833335 -0.31689904
| 12> H   3.72618224 0.76666707 0.64363254
| 13> H   1.30168171 -0.27899725 -2.77258081
| 14> Cl   1.51824579 2.09815678 -4.27762289
| 15> H   3.15787582 3.62596108 -2.5217076
| 16> C   2.25128135 -1.22085825 -0.40981809
| 17> C   1.98877621 -1.30617245 1.05522069
| 18> H   1.68067017 -2.3140336 1.37371212
| 19> H   1.18881653 -0.61346283 1.35883937
| 20> H   2.88050573 -1.0492756 1.64714078
| 21> N   2.21139114 -2.32474502 -1.15827727
| 22> O   1.95897318 -3.45687564 -0.68474808
| 23> O   2.47697936 -2.28241134 -2.40907231
| 24> N   4.91564802 -1.2625583 -2.96315416
| 25> C   5.4901409 -2.23809194 -3.95906706
| 26> C   6.95384509 -1.88056529 -4.23087501
| 27> O   7.04780956 -0.55019117 -4.70968185
| 28> C   6.5563683 0.40174407 -3.78517101
| 29> C   5.07461631 0.13736002 -3.49729383
| 30> H   4.68341778 0.8687008 -2.75309653
| 31> H   4.46539777 0.25281062 -4.42507087
| 32> H   6.70780355 1.36891908 -4.30548287
| 33> H   7.17529355 0.39231165 -2.86821627
| 34> H   7.3770693 -2.48095184 -5.06144012
| 35> H   7.59728001 -2.00589506 -3.34020124
| 36> H   4.89053344 -2.19965324 -4.90048426
| 37> H   4.60628933 -1.56122543 0.03876674
| 38> H   3.87964739 -1.49356175 -2.76886829
| 39> H   5.39548857 -3.2765473 -3.56374228
| 40> H   6.06880074 -2.00205237 0.13134651
| 41> H   5.40783222 -1.34794097 -2.03117942
| 42> O   5.49518297 -1.32417723 -0.26111909
| 43> *
| 44>
| 45>                          ****END OF INPUT****
 Total Charge           Charge          ....    0
 Multiplicity           Mult            ....    1
 Number of Electrons    NEL             ....  154
Dispersion correction           -0.081350545
FINAL SINGLE POINT ENERGY     -1339.111178344794
Dispersion correction            ... done
Dispersion correction           -0.080139784
FINAL SINGLE POINT ENERGY     -1339.119766388772
Dispersion correction            ... done
Dispersion correction           -0.080182247
FINAL SINGLE POINT ENERGY     -1339.120347472169
Dispersion correction            ... done
FINAL SINGLE POINT ENERGY     -1339.122500927482
FINAL SINGLE POINT ENERGY     -1339.122626154944
FINAL SINGLE POINT ENERGY     -1339.123570782172
FINAL SINGLE POINT ENERGY     -1339.123819785531
FINAL SINGLE POINT ENERGY     -1339.124087688095
FINAL SINGLE POINT ENERGY     -1339.124467842740
FINAL SINGLE POINT ENERGY     -1339.124872744191
FINAL SINGLE POINT ENERGY     -1339.126151028268
FINAL SINGLE POINT ENERGY     -1339.126155214646
FINAL SINGLE POINT ENERGY     -1339.126163929453
FINAL SINGLE POINT ENERGY     -1339.126166501949
FINAL SINGLE POINT ENERGY     -1339.126166353871
FINAL SINGLE POINT ENERGY     -1339.126166733435
FINAL SINGLE POINT ENERGY     -1339.126166931573
Dispersion correction            ... done
Dispersion correction           -0.079001777
FINAL SINGLE POINT ENERGY     -1339.126168065240
Dispersion correction            ... done
Dispersion correction           -0.079000139
FINAL SINGLE POINT ENERGY     -1339.126169968718
Dispersion correction            ... done
                    ***********************HURRAY********************

CARTESIAN COORDINATES (ANGSTROEM)
---------------------------------
  C      3.367553    2.402387   -0.777777
  C      3.173508    1.101264   -0.335525
  C      2.412585    0.184072   -1.080326
  C      1.832898    0.636384   -2.277812
  C      2.032835    1.940454   -2.692278
  C      2.800779    2.843238   -1.968663
  H      3.976177    3.081987   -0.194974
  H      3.638609    0.784600    0.587807
  H      1.242789   -0.035974   -2.878097
  Cl     1.300868    2.465183   -4.200904
  H      2.954313    3.851573   -2.325991
  C      2.227079   -1.175649   -0.569148
  C      2.124604   -1.443380    0.900921
  H      1.241117   -2.046966    1.118207
  H      2.049720   -0.511128    1.456300
  H      2.987695   -2.003633    1.276235
  N      2.172886   -2.229918   -1.372202
  O      2.014206   -3.411301   -0.904391
  O      2.326039   -2.113824   -2.675021
  N      4.850025   -1.312382   -2.955776
  C      5.534915   -2.374393   -3.748360
  C      6.978735   -1.982776   -3.999226
  O      7.061777   -0.716807   -4.647185
  C      6.475608    0.307306   -3.848545
  C      5.007674    0.030738   -3.582937
  H      4.591336    0.772754   -2.906434
  H      4.435607    0.027849   -4.510060
  H      6.579394    1.241597   -4.397762
  H      7.019989    0.393379   -2.899803
  H      7.450686   -2.711591   -4.656083
  H      7.530825   -1.950872   -3.051580
  H      4.991653   -2.478875   -4.687142
  H      5.309699   -1.272050    0.378183
  H      3.815600   -1.569712   -2.869574
  H      5.469248   -3.306335   -3.189166
  H      6.425765   -2.166094   -0.175096
  H      5.236329   -1.295410   -1.993616
  O      5.977706   -1.321486   -0.318268

 Multiplicity           Mult            ....    1
 Number of Electrons    NEL             ....  154
 Basis Dimension        Dim             ....  709

ORBITAL ENERGIES
----------------

  NO   OCC          E(Eh)            E(eV)
   0   2.0000    -101.526055     -2762.6644
   1   2.0000     -19.141864      -520.8766
   2   2.0000     -19.140326      -520.8348
   3   2.0000     -19.093567      -519.5624
   4   2.0000     -19.088256      -519.4179
   5   2.0000     -14.474002      -393.8576
   6   2.0000     -14.389804      -391.5665
   7   2.0000     -10.233233      -278.4604
   8   2.0000     -10.224195      -278.2145
   9   2.0000     -10.223686      -278.2006
  10   2.0000     -10.216434      -278.0033
  11   2.0000     -10.214884      -277.9611
  12   2.0000     -10.196399      -277.4581
  13   2.0000     -10.194818      -277.4151
  14   2.0000     -10.179970      -277.0111
  15   2.0000     -10.179372      -276.9948
  16   2.0000     -10.177864      -276.9538
  17   2.0000     -10.174818      -276.8709
  18   2.0000     -10.159954      -276.4664
  19   2.0000      -9.458213      -257.3711
  20   2.0000      -7.219452      -196.4513
  21   2.0000      -7.211446      -196.2334
  22   2.0000      -7.211131      -196.2248
  23   2.0000      -1.133088       -30.8329
  24   2.0000      -1.051251       -28.6060
  25   2.0000      -1.025036       -27.8926
  26   2.0000      -0.975862       -26.5546
  27   2.0000      -0.956797       -26.0358
  28   2.0000      -0.892711       -24.2919
  29   2.0000      -0.848970       -23.1016
  30   2.0000      -0.816160       -22.2088
  31   2.0000      -0.791189       -21.5293
  32   2.0000      -0.751610       -20.4524
  33   2.0000      -0.734905       -19.9978
  34   2.0000      -0.718665       -19.5559
  35   2.0000      -0.697485       -18.9795
  36   2.0000      -0.671756       -18.2794
  37   2.0000      -0.628064       -17.0905
  38   2.0000      -0.612477       -16.6663
  39   2.0000      -0.601603       -16.3704
  40   2.0000      -0.565286       -15.3822
  41   2.0000      -0.541474       -14.7342
  42   2.0000      -0.539390       -14.6775
  43   2.0000      -0.525772       -14.3070
  44   2.0000      -0.512187       -13.9373
  45   2.0000      -0.493465       -13.4279
  46   2.0000      -0.491255       -13.3677
  47   2.0000      -0.483254       -13.1500
  48   2.0000      -0.480002       -13.0615
  49   2.0000      -0.477137       -12.9836
  50   2.0000      -0.475427       -12.9370
  51   2.0000      -0.459022       -12.4906
  52   2.0000      -0.444011       -12.0822
  53   2.0000      -0.441070       -12.0021
  54   2.0000      -0.427326       -11.6281
  55   2.0000      -0.418580       -11.3901
  56   2.0000      -0.416795       -11.3416
  57   2.0000      -0.404654       -11.0112
  58   2.0000      -0.397949       -10.8287
  59   2.0000      -0.395389       -10.7591
  60   2.0000      -0.385141       -10.4802
  61   2.0000      -0.383854       -10.4452
  62   2.0000      -0.381429       -10.3792
  63   2.0000      -0.371329       -10.1044
  64   2.0000      -0.361117        -9.8265
  65   2.0000      -0.356557        -9.7024
  66   2.0000      -0.338313        -9.2060
  67   2.0000      -0.332635        -9.0515
  68   2.0000      -0.325084        -8.8460
  69   2.0000      -0.316826        -8.6213
  70   2.0000      -0.284706        -7.7472
  71   2.0000      -0.277736        -7.5576
  72   2.0000      -0.276307        -7.5187
  73   2.0000      -0.265512        -7.2249
  74   2.0000      -0.252341        -6.8665
  75   2.0000      -0.240106        -6.5336
  76   2.0000      -0.192194        -5.2299
  77   0.0000      -0.039607        -1.0778
  78   0.0000      -0.018806        -0.5117
  79   0.0000       0.013410         0.3649
  80   0.0000       0.024810         0.6751
  81   0.0000       0.029751         0.8096

MULLIKEN ATOMIC CHARGES
-----------------------
   0 C :   -0.144008
   1 C :   -0.207011
   2 C :    0.080690
   3 C :   -0.233016
   4 C :    0.216595
   5 C :   -0.220051
   6 H :    0.144149
   7 H :    0.157846
   8 H :    0.128285
   9 Cl:   -0.152999
  10 H :    0.145066
  11 C :   -0.015874
  12 C :   -0.387139
  13 H :    0.123365
  14 H :    0.128550
  15 H :    0.119315
  16 N :    0.420181
  17 O :   -0.578402
  18 O :   -0.612321
  19 N :   -0.145829
  20 C :   -0.133117
  21 C :   -0.063356
  22 O :   -0.358222
  23 C :   -0.052188
  24 C :   -0.141298
  25 H :    0.164995
  26 H :    0.141519
  27 H :    0.140952
  28 H :    0.121157
  29 H :    0.142144
  30 H :    0.121664
  31 H :    0.144173
  32 H :    0.368582
  33 H :    0.302480
  34 H :    0.153525
  35 H :    0.371812
  36 H :    0.301552
  37 O :   -0.693764
Sum of atomic charges:   -0.0000000

LOEWDIN ATOMIC CHARGES
----------------------
   0 C :   -0.139785
   1 C :   -0.112111
   2 C :   -0.138557
   3 C :   -0.119724
   4 C :   -0.424678
   5 C :   -0.160327
   6 H :    0.153233
   7 H :    0.154990
   8 H :    0.151799
   9 Cl:    0.347912
  10 H :    0.151158
  11 C :   -0.239850
  12 C :   -0.276109
  13 H :    0.127484
  14 H :    0.130814
  15 H :    0.125065
  16 N :   -0.023135
  17 O :   -0.276349
  18 O :   -0.279206
  19 N :    0.197136
  20 C :   -0.240906
  21 C :   -0.305748
  22 O :    0.134429
  23 C :   -0.304158
  24 C :   -0.240314
  25 H :    0.153375
  26 H :    0.147195
  27 H :    0.141033
  28 H :    0.130464
  29 H :    0.140750
  30 H :    0.130875
  31 H :    0.147056
  32 H :    0.177169
  33 H :    0.186943
  34 H :    0.149448
  35 H :    0.182354
  36 H :    0.196581
  37 O :   -0.276308

  Mayer bond orders larger than 0.100000
B(  0-C ,  1-C ) :   1.4331 B(  0-C ,  5-C ) :   1.3687 B(  0-C ,  6-H ) :   0.9768
B(  1-C ,  2-C ) :   1.3179 B(  1-C ,  7-H ) :   0.9602 B(  2-C ,  3-C ) :   1.2956
B(  2-C , 11-C ) :   1.0902 B(  3-C ,  4-C ) :   1.3734 B(  3-C ,  8-H ) :   0.9736
B(  4-C ,  5-C ) :   1.3246 B(  4-C ,  9-Cl) :   0.8980 B(  5-C , 10-H ) :   0.9810
B( 11-C , 12-C ) :   0.9817 B( 11-C , 16-N ) :   1.5012 B( 11-C , 17-O ) :   0.1201
B( 11-C , 18-O ) :   0.1072 B( 12-C , 13-H ) :   0.9616 B( 12-C , 14-H ) :   0.9784
B( 12-C , 15-H ) :   0.9605 B( 16-N , 17-O ) :   1.2996 B( 16-N , 18-O ) :   1.1377
B( 18-O , 33-H ) :   0.2024 B( 19-N , 20-C ) :   0.9092 B( 19-N , 24-C ) :   0.9164
B( 19-N , 33-H ) :   0.7603 B( 19-N , 36-H ) :   0.8426 B( 20-C , 21-C ) :   0.9893
B( 20-C , 31-H ) :   0.9522 B( 20-C , 34-H ) :   0.9505 B( 21-C , 22-O ) :   0.9834
B( 21-C , 29-H ) :   0.9581 B( 21-C , 30-H ) :   0.9708 B( 22-O , 23-C ) :   0.9808
B( 23-C , 24-C ) :   0.9866 B( 23-C , 27-H ) :   0.9592 B( 23-C , 28-H ) :   0.9742
B( 24-C , 25-H ) :   0.9474 B( 24-C , 26-H ) :   0.9511 B( 32-H , 37-O ) :   0.8686
B( 35-H , 37-O ) :   0.8661

Dispersion correction           -0.079001175
FINAL SINGLE POINT ENERGY     -1339.126170873382

DIPOLE MOMENT
-------------
                                X             Y             Z
Electronic contribution:    -16.51414      11.66194      -9.09311
Nuclear contribution   :     21.00663     -10.25093       9.96386
                        -----------------------------------------
Total Dipole Moment    :      4.49248       1.41101       0.87075
                        -----------------------------------------
Magnitude (a.u.)       :      4.78869
Magnitude (Debye)      :     12.17188

Rotational constants in cm-1:     0.011142     0.009015     0.006675
Rotational constants in MHz :   334.026086   270.264392   200.098897

                             ****ORCA TERMINATED NORMALLY****
TOTAL RUN TIME: 0 days 1 hours 31 minutes 12 seconds 950 msec
