                         Program Version 5.0.4 -  RELEASE  -
|  1> !  NUMFREQ B3LYP def2-TZVP CPCM D3
|  2> %pal nprocs 102 end
|  3> %cpcm epsilon 78.4 end
|  4> *xyz -1 1
|  5> C   -0.8023827115863 0.76933095669972 1.04024930540783
|  6> C   0.54272600879917 0.70843801757604 1.37694254047654
|  7> C   1.39007057645903 -0.10748267910975 0.62960156586357
|  8> C   0.877901882285 -0.84812012123904 -0.43121457109632
|  9> C   -0.47214239345132 -0.74614417622074 -0.7338017434914
| 10> C   -1.34020787011393 0.05846123040901 -0.01613713085973
| 11> H   0.96851121974368 1.26412671692993 2.21296168169006
| 12> H   1.50860315034322 -1.49083065852037 -1.02486115316416
| 13> H   -2.3854715110331 0.12448361435798 -0.26923415950947
| 14> N   -1.00865592173222 -1.51370891424745 -1.86631262150331
| 15> O   -2.19550252185025 -1.39433463641503 -2.13089836583942
| 16> O   -0.23773893145126 -2.23253868048294 -2.48631527959067
| 17> C   2.84034310693705 -0.16144792690042 1.03450436790115
| 18> H   2.96081214238078 0.44894084900889 1.9408192470743
| 19> C   3.39518651594157 -1.5672669636111 1.23559527727708
| 20> H   4.4394205051183 -1.52394549199998 1.54126754768357
| 21> H   3.31149598566469 -2.16666841058809 0.32880893554074
| 22> H   2.82221740884558 -2.05384931598617 2.02508650251572
| 23> N   3.72205849706717 0.5506844213088 0.00933442704347
| 24> O   4.83808285163213 0.86556254310475 0.39026022768783
| 25> O   3.29928526425506 0.76241261008138 -1.11428871806732
| 26> O   2.19932978374694 4.03819754269731 4.49517462590688
| 27> H   3.02547954989768 4.28695308752337 4.92346393922766
| 28> N   -1.69508900016107 1.62901883672603 1.83263269786798
| 29> O   -2.86228220806774 1.72732470585525 1.47879664276223
| 30> O   -1.22592705757124 2.19948706219285 2.80535687682005
| 31> H   2.47934869035247 1.0768886122763 4.14986806671734
| 32> H   2.36700597582372 3.09089539923231 4.09655921851796
| 33> O   2.57134101172509 1.73886176934113 3.4558000491397
| 34> *
| 35>
| 36>                          ****END OF INPUT****

CARTESIAN COORDINATES (ANGSTROEM)
---------------------------------
  C     -0.802383    0.769331    1.040249
  C      0.542726    0.708438    1.376943
  C      1.390071   -0.107483    0.629602
  C      0.877902   -0.848120   -0.431215
  C     -0.472142   -0.746144   -0.733802
  C     -1.340208    0.058461   -0.016137
  H      0.968511    1.264127    2.212962
  H      1.508603   -1.490831   -1.024861
  H     -2.385472    0.124484   -0.269234
  N     -1.008656   -1.513709   -1.866313
  O     -2.195503   -1.394335   -2.130898
  O     -0.237739   -2.232539   -2.486315
  C      2.840343   -0.161448    1.034504
  H      2.960812    0.448941    1.940819
  C      3.395187   -1.567267    1.235595
  H      4.439421   -1.523945    1.541268
  H      3.311496   -2.166668    0.328809
  H      2.822217   -2.053849    2.025087
  N      3.722058    0.550684    0.009334
  O      4.838083    0.865563    0.390260
  O      3.299285    0.762413   -1.114289
  O      2.199330    4.038198    4.495175
  H      3.025480    4.286953    4.923464
  N     -1.695089    1.629019    1.832633
  O     -2.862282    1.727325    1.478797
  O     -1.225927    2.199487    2.805357
  H      2.479349    1.076889    4.149868
  H      2.367006    3.090895    4.096559
  O      2.571341    1.738862    3.455800

 Total Charge           Charge          ....   -1
 Multiplicity           Mult            ....    1
 Number of Electrons    NEL             ....  144
 Basis Dimension        Dim             ....  649

ORBITAL ENERGIES
----------------

  NO   OCC          E(Eh)            E(eV)
   0   2.0000     -19.176034      -521.8064
   1   2.0000     -19.175784      -521.7996
   2   2.0000     -19.174528      -521.7654
   3   2.0000     -19.174150      -521.7551
   4   2.0000     -19.171226      -521.6756
   5   2.0000     -19.168640      -521.6052
   6   2.0000     -19.067073      -518.8414
   7   2.0000     -19.017369      -517.4889
   8   2.0000     -14.569808      -396.4646
   9   2.0000     -14.567924      -396.4134
  10   2.0000     -14.552491      -395.9934
  11   2.0000     -10.253338      -279.0075
  12   2.0000     -10.251298      -278.9520
  13   2.0000     -10.230595      -278.3886
  14   2.0000     -10.221554      -278.1426
  15   2.0000     -10.216613      -278.0082
  16   2.0000     -10.214937      -277.9626
  17   2.0000     -10.205988      -277.7190
  18   2.0000     -10.173986      -276.8482
  19   2.0000      -1.250541       -34.0289
  20   2.0000      -1.248718       -33.9794
  21   2.0000      -1.240860       -33.7655
  22   2.0000      -1.075711       -29.2716
  23   2.0000      -1.073800       -29.2196
  24   2.0000      -1.067700       -29.0536
  25   2.0000      -0.947028       -25.7699
  26   2.0000      -0.919844       -25.0302
  27   2.0000      -0.864916       -23.5356
  28   2.0000      -0.852293       -23.1921
  29   2.0000      -0.843459       -22.9517
  30   2.0000      -0.786845       -21.4111
  31   2.0000      -0.732034       -19.9197
  32   2.0000      -0.717279       -19.5181
  33   2.0000      -0.699967       -19.0471
  34   2.0000      -0.646084       -17.5808
  35   2.0000      -0.605942       -16.4885
  36   2.0000      -0.594373       -16.1737
  37   2.0000      -0.579951       -15.7813
  38   2.0000      -0.557070       -15.1587
  39   2.0000      -0.556244       -15.1362
  40   2.0000      -0.553508       -15.0617
  41   2.0000      -0.547020       -14.8852
  42   2.0000      -0.537044       -14.6137
  43   2.0000      -0.533403       -14.5146
  44   2.0000      -0.529549       -14.4098
  45   2.0000      -0.521753       -14.1976
  46   2.0000      -0.517010       -14.0685
  47   2.0000      -0.494903       -13.4670
  48   2.0000      -0.473760       -12.8917
  49   2.0000      -0.458315       -12.4714
  50   2.0000      -0.424122       -11.5409
  51   2.0000      -0.410036       -11.1576
  52   2.0000      -0.408591       -11.1183
  53   2.0000      -0.407303       -11.0833
  54   2.0000      -0.383663       -10.4400
  55   2.0000      -0.376399       -10.2423
  56   2.0000      -0.368050       -10.0151
  57   2.0000      -0.339966        -9.2509
  58   2.0000      -0.337484        -9.1834
  59   2.0000      -0.336607        -9.1596
  60   2.0000      -0.335368        -9.1258
  61   2.0000      -0.331895        -9.0313
  62   2.0000      -0.329543        -8.9673
  63   2.0000      -0.320374        -8.7178
  64   2.0000      -0.317030        -8.6268
  65   2.0000      -0.314931        -8.5697
  66   2.0000      -0.313681        -8.5357
  67   2.0000      -0.298985        -8.1358
  68   2.0000      -0.286515        -7.7965
  69   2.0000      -0.271064        -7.3760
  70   2.0000      -0.223438        -6.0800
  71   2.0000      -0.219174        -5.9640
  72   0.0000      -0.111895        -3.0448
  73   0.0000      -0.106374        -2.8946
  74   0.0000      -0.078091        -2.1250
  75   0.0000      -0.035773        -0.9734
  76   0.0000      -0.004887        -0.1330

MULLIKEN ATOMIC CHARGES
-----------------------
   0 C :    0.130661
   1 C :   -0.161450
   2 C :    0.163920
   3 C :   -0.221367
   4 C :    0.135648
   5 C :   -0.186360
   6 H :    0.139147
   7 H :    0.177347
   8 H :    0.185188
   9 N :    0.463883
  10 O :   -0.344091
  11 O :   -0.343440
  12 C :    0.094893
  13 H :    0.061710
  14 C :   -0.391219
  15 H :    0.145168
  16 H :    0.145360
  17 H :    0.143506
  18 N :    0.411076
  19 O :   -0.346998
  20 O :   -0.338286
  21 O :   -0.822629
  22 H :    0.318728
  23 N :    0.466411
  24 O :   -0.348481
  25 O :   -0.342851
  26 H :    0.288979
  27 H :    0.351295
  28 O :   -0.975748
Sum of atomic charges:   -1.0000000

LOEWDIN ATOMIC CHARGES
----------------------
   0 C :   -0.141550
   1 C :   -0.022692
   2 C :   -0.108661
   3 C :   -0.019198
   4 C :   -0.138938
   5 C :   -0.033093
   6 H :    0.162013
   7 H :    0.169756
   8 H :    0.171160
   9 N :   -0.012567
  10 O :   -0.036378
  11 O :   -0.037940
  12 C :   -0.209822
  13 H :    0.164671
  14 C :   -0.255540
  15 H :    0.131012
  16 H :    0.131460
  17 H :    0.140237
  18 N :   -0.028871
  19 O :   -0.051280
  20 O :   -0.036837
  21 O :   -0.469740
  22 H :    0.136469
  23 N :   -0.013186
  24 O :   -0.041689
  25 O :   -0.035405
  26 H :    0.093783
  27 H :    0.113087
  28 O :   -0.720262

  Mayer bond orders larger than 0.100000
B(  0-C ,  1-C ) :   1.4366 B(  0-C ,  5-C ) :   1.4153 B(  0-C , 23-N ) :   0.9949
B(  1-C ,  2-C ) :   1.4474 B(  1-C ,  6-H ) :   0.8220 B(  2-C ,  3-C ) :   1.3559
B(  2-C , 12-C ) :   0.8864 B(  3-C ,  4-C ) :   1.3930 B(  3-C ,  7-H ) :   0.9288
B(  4-C ,  5-C ) :   1.3927 B(  4-C ,  9-N ) :   0.9993 B(  5-C ,  8-H ) :   0.8999
B(  6-H , 28-O ) :   0.2861 B(  9-N , 10-O ) :   1.5970 B(  9-N , 11-O ) :   1.5950
B( 10-O , 11-O ) :   0.1986 B( 12-C , 13-H ) :   0.8614 B( 12-C , 14-C ) :   0.9342
B( 12-C , 18-N ) :   0.8400 B( 12-C , 28-O ) :  -0.1745 B( 13-H , 28-O ) :   0.2844
B( 14-C , 15-H ) :   0.9634 B( 14-C , 16-H ) :   0.9653 B( 14-C , 17-H ) :   0.9658
B( 18-N , 19-O ) :   1.6270 B( 18-N , 20-O ) :   1.6289 B( 19-O , 20-O ) :   0.2024
B( 21-O , 22-H ) :   0.9048 B( 21-O , 27-H ) :   0.6830 B( 23-N , 24-O ) :   1.5917
B( 23-N , 25-O ) :   1.5925 B( 24-O , 25-O ) :   0.1996 B( 26-H , 28-O ) :   0.9197
B( 27-H , 28-O ) :   0.2845

Dispersion correction           -0.054905483
FINAL SINGLE POINT ENERGY     -1076.753986009235
Dispersion correction            ... done

DIPOLE MOMENT
-------------
                                X             Y             Z
Electronic contribution:    -13.99691      -3.94653     -15.44233
Nuclear contribution   :     12.84758      -0.90571      12.60223
                        -----------------------------------------
Total Dipole Moment    :     -1.14934      -4.85224      -2.84010
                        -----------------------------------------
Magnitude (a.u.)       :      5.73859
Magnitude (Debye)      :     14.58633

VIBRATIONAL FREQUENCIES
-----------------------

Scaling factor for frequencies =  1.000000000 (already applied!)

   0:         0.00 cm**-1
   1:         0.00 cm**-1
   2:         0.00 cm**-1
   3:         0.00 cm**-1
   4:         0.00 cm**-1
   5:         0.00 cm**-1
   6:       -49.28 cm**-1 ***imaginary mode***
   7:       -31.62 cm**-1 ***imaginary mode***
   8:        18.38 cm**-1
   9:        30.55 cm**-1
  10:        39.40 cm**-1
  11:        41.88 cm**-1
  12:        48.27 cm**-1
  13:        52.23 cm**-1
  14:        72.38 cm**-1
  15:        78.83 cm**-1
  16:       112.02 cm**-1
  17:       129.61 cm**-1
  18:       144.64 cm**-1
  19:       151.20 cm**-1
  20:       161.72 cm**-1
  21:       203.77 cm**-1
  22:       226.84 cm**-1
  23:       238.10 cm**-1
  24:       296.22 cm**-1
  25:       314.52 cm**-1
  26:       322.21 cm**-1
  27:       344.77 cm**-1
  28:       365.76 cm**-1
  29:       371.85 cm**-1
  30:       416.65 cm**-1
  31:       448.20 cm**-1
  32:       483.55 cm**-1
  33:       528.11 cm**-1
  34:       544.67 cm**-1
  35:       564.08 cm**-1
  36:       600.30 cm**-1
  37:       640.36 cm**-1
  38:       671.91 cm**-1
  39:       717.13 cm**-1
  40:       742.31 cm**-1
  41:       751.60 cm**-1
  42:       766.25 cm**-1
  43:       795.81 cm**-1
  44:       823.20 cm**-1
  45:       877.17 cm**-1
  46:       918.23 cm**-1
  47:       937.61 cm**-1
  48:       952.22 cm**-1
  49:       963.51 cm**-1
  50:      1021.22 cm**-1
  51:      1029.78 cm**-1
  52:      1064.69 cm**-1
  53:      1090.17 cm**-1
  54:      1105.57 cm**-1
  55:      1130.28 cm**-1
  56:      1143.27 cm**-1
  57:      1155.63 cm**-1
  58:      1257.63 cm**-1
  59:      1287.24 cm**-1
  60:      1357.48 cm**-1
  61:      1359.11 cm**-1
  62:      1371.57 cm**-1
  63:      1376.36 cm**-1
  64:      1398.18 cm**-1
  65:      1406.37 cm**-1
  66:      1426.20 cm**-1
  67:      1469.50 cm**-1
  68:      1486.76 cm**-1
  69:      1487.96 cm**-1
  70:      1493.74 cm**-1
  71:      1552.05 cm**-1
  72:      1558.36 cm**-1
  73:      1566.57 cm**-1
  74:      1627.73 cm**-1
  75:      1631.26 cm**-1
  76:      1658.38 cm**-1
  77:      2313.72 cm**-1
  78:      2930.12 cm**-1
  79:      3049.02 cm**-1
  80:      3050.53 cm**-1
  81:      3117.39 cm**-1
  82:      3128.49 cm**-1
  83:      3241.35 cm**-1
  84:      3255.04 cm**-1
  85:      3794.59 cm**-1
  86:      3814.63 cm**-1

IR SPECTRUM
-----------

 Mode   freq       eps      Int      T**2         TX        TY        TZ
       cm**-1   L/(mol*cm) km/mol    a.u.
----------------------------------------------------------------------------
  8:     18.38   0.003407   17.22  0.057865  ( 0.025766 -0.124998  0.203903)
  9:     30.55   0.001834    9.27  0.018727  ( 0.130231 -0.014434 -0.039480)
 10:     39.40   0.004605   23.27  0.036478  (-0.161132 -0.087640  0.053230)
 11:     41.88   0.000072    0.37  0.000540  ( 0.010654  0.003916  0.020265)
 12:     48.27   0.005725   28.93  0.037013  ( 0.010455 -0.190965 -0.020886)
 13:     52.23   0.000397    2.00  0.002369  ( 0.013027  0.017037  0.043695)
 14:     72.38   0.001445    7.30  0.006230  (-0.012209  0.033091 -0.070614)
 15:     78.83   0.003073   15.53  0.012165  ( 0.099659 -0.039332 -0.026199)
 16:    112.02   0.033895  171.29  0.094423  (-0.197196  0.014872 -0.235192)
 17:    129.61   0.000720    3.64  0.001733  ( 0.041401  0.002447 -0.003653)
 18:    144.64   0.001300    6.57  0.002804  (-0.041757  0.025086  0.020761)
 19:    151.20   0.001327    6.70  0.002738  (-0.005975 -0.016819  0.049189)
 20:    161.72   0.002174   10.99  0.004195  ( 0.056195  0.031575  0.006299)
 21:    203.77   0.000148    0.75  0.000227  ( 0.008564 -0.005203  0.011257)
 22:    226.84   0.000178    0.90  0.000245  ( 0.007981 -0.013466 -0.000197)
 23:    238.10   0.001335    6.75  0.001750  ( 0.034696 -0.019433  0.012986)
 24:    296.22   0.000675    3.41  0.000711  (-0.023329 -0.008223  0.009964)
 25:    314.52   0.013018   65.79  0.012917  ( 0.013616  0.093376  0.063341)
 26:    322.21   0.040938  206.88  0.039649  (-0.010663  0.170056  0.103033)
 27:    344.77   0.000617    3.12  0.000559  (-0.015526  0.004737 -0.017187)
 28:    365.76   0.000601    3.04  0.000513  ( 0.009460 -0.011650 -0.016956)
 29:    371.85   0.003287   16.61  0.002758  (-0.001689 -0.045761 -0.025719)
 30:    416.65   0.021321  107.75  0.015969  (-0.016786  0.108927  0.061824)
 31:    448.20   0.000709    3.58  0.000494  ( 0.007036  0.006394  0.020086)
 32:    483.55   0.000085    0.43  0.000055  ( 0.005497  0.001257 -0.004809)
 33:    528.11   0.003344   16.90  0.001976  (-0.043146 -0.005517 -0.009155)
 34:    544.67   0.001279    6.46  0.000733  (-0.024604  0.011249 -0.000895)
 35:    564.08   0.029513  149.15  0.016327  (-0.033370 -0.106588 -0.062072)
 36:    600.30   0.001413    7.14  0.000735  (-0.005699  0.022807  0.013488)
 37:    640.36   0.005831   29.47  0.002842  (-0.048705 -0.005665  0.020918)
 38:    671.91   0.003383   17.10  0.001571  ( 0.019006  0.033512  0.009327)
 39:    717.13   0.011372   57.47  0.004949  (-0.005548  0.033110 -0.061819)
 40:    742.31   0.004712   23.81  0.001981  (-0.012947  0.000003  0.042583)
 41:    751.60   0.012230   61.81  0.005078  (-0.010269  0.063145  0.031387)
 42:    766.25   0.004575   23.12  0.001863  ( 0.015745  0.031423 -0.025057)
 43:    795.81   0.000091    0.46  0.000036  (-0.003658 -0.003108  0.003547)
 44:    823.20   0.004099   20.72  0.001554  ( 0.037313 -0.006514  0.010921)
 45:    877.17   0.009165   46.32  0.003261  ( 0.041962  0.019919 -0.033213)
 46:    918.23   0.000187    0.94  0.000063  (-0.001435 -0.003985  0.006749)
 47:    937.61   0.016763   84.71  0.005579  ( 0.002534 -0.047882 -0.057272)
 48:    952.22   0.000317    1.60  0.000104  (-0.000455  0.002519 -0.009868)
 49:    963.51   0.004021   20.32  0.001302  ( 0.006522  0.030307 -0.018474)
 50:   1021.22   0.001841    9.31  0.000563  ( 0.021141 -0.000054  0.010759)
 51:   1029.78   0.000954    4.82  0.000289  ( 0.004835 -0.010880  0.012133)
 52:   1064.69   0.001970    9.96  0.000577  ( 0.016145  0.017668  0.002160)
 53:   1090.17   0.018105   91.50  0.005183  (-0.000570  0.043549  0.057321)
 54:   1105.57   0.010447   52.79  0.002949  (-0.038281  0.022779  0.031056)
 55:   1130.28   0.001388    7.01  0.000383  ( 0.007575  0.015901  0.008543)
 56:   1143.27   0.026353  133.18  0.007193  (-0.026612 -0.022775  0.077241)
 57:   1155.63   0.022571  114.06  0.006095  (-0.075124 -0.001052 -0.021217)
 58:   1257.63   0.001755    8.87  0.000436  (-0.015511  0.013244  0.004418)
 59:   1287.24   0.000793    4.01  0.000192  (-0.001340 -0.007033 -0.011871)
 60:   1357.48   0.076579  387.00  0.017604  (-0.032100 -0.078120 -0.102328)
 61:   1359.11   0.129234  653.09  0.029673  (-0.042425  0.110103  0.125502)
 62:   1371.57   0.016661   84.20  0.003791  (-0.032868 -0.011395  0.050800)
 63:   1376.36   0.049835  251.84  0.011299  ( 0.102493 -0.008681  0.026812)
 64:   1398.18   0.009742   49.23  0.002174  ( 0.045687  0.009274 -0.001023)
 65:   1406.37   0.003839   19.40  0.000852  (-0.009351  0.010043 -0.025759)
 66:   1426.20   0.025417  128.45  0.005561  ( 0.059292  0.032384 -0.031578)
 67:   1469.50   0.007831   39.57  0.001663  ( 0.035162  0.008745  0.018711)
 68:   1486.76   0.006774   34.23  0.001422  (-0.037234 -0.005602  0.002033)
 69:   1487.96   0.013007   65.73  0.002728  (-0.044180  0.010239 -0.025907)
 70:   1493.74   0.007287   36.82  0.001522  ( 0.006306 -0.021267 -0.032098)
 71:   1552.05   0.055349  279.71  0.011129  ( 0.015120 -0.062570 -0.083578)
 72:   1558.36   0.157706  796.98  0.031581  (-0.168950  0.009514 -0.054279)
 73:   1566.57   0.121473  613.88  0.024198  (-0.118019  0.001538 -0.101326)
 74:   1627.73   0.011565   58.45  0.002217  ( 0.007937 -0.027798 -0.037168)
 75:   1631.26   0.019341   97.74  0.003700  (-0.054471  0.024993 -0.010402)
 76:   1658.38   0.005942   30.03  0.001118  (-0.032274  0.002679 -0.008325)
 77:   2313.72   0.713530  3605.89  0.096237  (-0.014381  0.273467  0.145762)
 78:   2930.12   0.064531  326.12  0.006873  (-0.015405  0.038191  0.071950)
 79:   3049.02   0.045221  228.53  0.004628  ( 0.032834  0.035979  0.047494)
 80:   3050.53   0.051738  261.46  0.005293  (-0.041766 -0.016898 -0.057120)
 81:   3117.39   0.001438    7.27  0.000144  ( 0.002847 -0.002219 -0.011444)
 82:   3128.49   0.002261   11.43  0.000226  (-0.014308 -0.001636 -0.004260)
 83:   3241.35   0.001996   10.09  0.000192  (-0.004682  0.008439  0.009950)
 84:   3255.04   0.007523   38.02  0.000721  (-0.026117  0.001830 -0.005982)
 85:   3794.59   0.000088    0.45  0.000007  ( 0.001149  0.002314 -0.000772)
 86:   3814.63   0.005546   28.03  0.000454  ( 0.014049  0.011652  0.010981)

--------------------------
THERMOCHEMISTRY AT 298.15K
--------------------------

Temperature         ... 298.15 K
Pressure            ... 1.00 atm
Total Mass          ... 276.18 AMU

Throughout the following assumptions are being made:
  (1) The electronic state is orbitally nondegenerate
  (2) There are no thermally accessible electronically excited states
  (3) Hindered rotations indicated by low frequency modes are not
      treated as such but are treated as vibrations and this may
      cause some error
  (4) All equations used are the standard statistical mechanics
      equations for an ideal gas
  (5) All vibrations are strictly harmonic

freq.      18.38  E(vib)   ...       0.57
freq.      30.55  E(vib)   ...       0.55
freq.      39.40  E(vib)   ...       0.54
freq.      41.88  E(vib)   ...       0.53
freq.      48.27  E(vib)   ...       0.53
freq.      52.23  E(vib)   ...       0.52
freq.      72.38  E(vib)   ...       0.50
freq.      78.83  E(vib)   ...       0.49
freq.     112.02  E(vib)   ...       0.45
freq.     129.61  E(vib)   ...       0.43
freq.     144.64  E(vib)   ...       0.41
freq.     151.20  E(vib)   ...       0.40
freq.     161.72  E(vib)   ...       0.39
freq.     203.77  E(vib)   ...       0.35
freq.     226.84  E(vib)   ...       0.33
freq.     238.10  E(vib)   ...       0.32
freq.     296.22  E(vib)   ...       0.27
freq.     314.52  E(vib)   ...       0.25
freq.     322.21  E(vib)   ...       0.25
freq.     344.77  E(vib)   ...       0.23
freq.     365.76  E(vib)   ...       0.22
freq.     371.85  E(vib)   ...       0.21
freq.     416.65  E(vib)   ...       0.18
freq.     448.20  E(vib)   ...       0.17
freq.     483.55  E(vib)   ...       0.15
freq.     528.11  E(vib)   ...       0.13
freq.     544.67  E(vib)   ...       0.12
freq.     564.08  E(vib)   ...       0.11
freq.     600.30  E(vib)   ...       0.10
freq.     640.36  E(vib)   ...       0.09
freq.     671.91  E(vib)   ...       0.08
freq.     717.13  E(vib)   ...       0.07
freq.     742.31  E(vib)   ...       0.06
freq.     751.60  E(vib)   ...       0.06
freq.     766.25  E(vib)   ...       0.06
freq.     795.81  E(vib)   ...       0.05
freq.     823.20  E(vib)   ...       0.05
freq.     877.17  E(vib)   ...       0.04
freq.     918.23  E(vib)   ...       0.03
freq.     937.61  E(vib)   ...       0.03
freq.     952.22  E(vib)   ...       0.03
freq.     963.51  E(vib)   ...       0.03
freq.    1021.22  E(vib)   ...       0.02
freq.    1029.78  E(vib)   ...       0.02
freq.    1064.69  E(vib)   ...       0.02
freq.    1090.17  E(vib)   ...       0.02
freq.    1105.57  E(vib)   ...       0.02
freq.    1130.28  E(vib)   ...       0.01
freq.    1143.27  E(vib)   ...       0.01
freq.    1155.63  E(vib)   ...       0.01
freq.    1257.63  E(vib)   ...       0.01
freq.    1287.24  E(vib)   ...       0.01
freq.    1357.48  E(vib)   ...       0.01
freq.    1359.11  E(vib)   ...       0.01
freq.    1371.57  E(vib)   ...       0.01
freq.    1376.36  E(vib)   ...       0.01
freq.    1398.18  E(vib)   ...       0.00
freq.    1406.37  E(vib)   ...       0.00
freq.    1426.20  E(vib)   ...       0.00
freq.    1469.50  E(vib)   ...       0.00
freq.    1486.76  E(vib)   ...       0.00
freq.    1487.96  E(vib)   ...       0.00
freq.    1493.74  E(vib)   ...       0.00
freq.    1552.05  E(vib)   ...       0.00
freq.    1558.36  E(vib)   ...       0.00
freq.    1566.57  E(vib)   ...       0.00
freq.    1627.73  E(vib)   ...       0.00
freq.    1631.26  E(vib)   ...       0.00
freq.    1658.38  E(vib)   ...       0.00
freq.    2313.72  E(vib)   ...       0.00
freq.    2930.12  E(vib)   ...       0.00
freq.    3049.02  E(vib)   ...       0.00
freq.    3050.53  E(vib)   ...       0.00
freq.    3117.39  E(vib)   ...       0.00
freq.    3128.49  E(vib)   ...       0.00
freq.    3241.35  E(vib)   ...       0.00
freq.    3255.04  E(vib)   ...       0.00
freq.    3794.59  E(vib)   ...       0.00
freq.    3814.63  E(vib)   ...       0.00

------------
INNER ENERGY
------------

The inner energy is: U= E(el) + E(ZPE) + E(vib) + E(rot) + E(trans)
    E(el)   - is the total energy from the electronic structure calculation
              = E(kin-el) + E(nuc-el) + E(el-el) + E(nuc-nuc)
    E(ZPE)  - the the zero temperature vibrational energy from the frequency calculation
    E(vib)  - the the finite temperature correction to E(ZPE) due to population
              of excited vibrational states
    E(rot)  - is the rotational thermal energy
    E(trans)- is the translational thermal energy

Summary of contributions to the inner energy U:
Electronic energy                ...  -1076.75398601 Eh
Zero point energy                ...      0.19618658 Eh     123.11 kcal/mol
Thermal vibrational correction   ...      0.01678537 Eh      10.53 kcal/mol
Thermal rotational correction    ...      0.00141627 Eh       0.89 kcal/mol
Thermal translational correction ...      0.00141627 Eh       0.89 kcal/mol
-----------------------------------------------------------------------
Total thermal energy                  -1076.53818151 Eh

Summary of corrections to the electronic energy:
(perhaps to be used in another calculation)
Total thermal correction                  0.01961792 Eh      12.31 kcal/mol
Non-thermal (ZPE) correction              0.19618658 Eh     123.11 kcal/mol
-----------------------------------------------------------------------
Total correction                          0.21580450 Eh     135.42 kcal/mol

--------
ENTHALPY
--------

The enthalpy is H = U + kB*T
                kB is Boltzmann's constant
Total free energy                 ...  -1076.53818151 Eh
Thermal Enthalpy correction       ...      0.00094421 Eh       0.59 kcal/mol
-----------------------------------------------------------------------
Total Enthalpy                    ...  -1076.53723730 Eh

Note: Only C1 symmetry has been detected, increase convergence thresholds
      if your molecule has a higher symmetry. Symmetry factor of 1.0 is
      used for the rotational entropy correction.

Note: Rotational entropy computed according to Herzberg
Infrared and Raman Spectra, Chapter V,1, Van Nostrand Reinhold, 1945
Point Group:  C1, Symmetry Number:   1
Rotational constants in cm-1:     0.012261     0.008975     0.005616

Vibrational entropy computed according to the QRRHO of S. Grimme
Chem.Eur.J. 2012 18 9955

-------
ENTROPY
-------

The entropy contributions are T*S = T*(S(el)+S(vib)+S(rot)+S(trans))
     S(el)   - electronic entropy
     S(vib)  - vibrational entropy

                             ****ORCA TERMINATED NORMALLY****
TOTAL RUN TIME: 0 days 0 hours 43 minutes 50 seconds 497 msec
