                         Program Version 5.0.4 -  RELEASE  -
|  1> !  opt B3LYP def2-TZVP CPCM D3
|  2> %pal nprocs 102 end
|  3> %cpcm epsilon 78.4 end
|  4> *xyz 0 2
|  5> C   -0.84181814 0.79034419 0.96301806
|  6> C   0.52023545 0.77596822 1.25823005
|  7> C   1.3279847 -0.27837062 0.81924256
|  8> C   0.77677308 -1.31503632 0.06947836
|  9> C   -0.58899366 -1.28096078 -0.22910671
| 10> C   -1.41003918 -0.2374399 0.21794498
| 11> H   -1.46720337 1.61520382 1.31696409
| 12> H   0.95440362 1.60034795 1.8381409
| 13> H   1.40322598 -2.14430693 -0.28533778
| 14> H   -2.48098317 -0.22674197 -0.01626003
| 15> N   -1.16003318 -2.34599365 -1.01554189
| 16> O   -2.34920295 -2.30572765 -1.30336528
| 17> O   -0.44190682 -3.26786294 -1.38146586
| 18> C   2.78399276 -0.28713036 1.19173395
| 19> C   3.18855607 -1.57161835 1.90602226
| 20> H   4.20266372 -1.50998977 2.33087387
| 21> H   3.16039465 -2.45474798 1.24999586
| 22> H   2.50738999 -1.78224453 2.7469481
| 23> N   3.62469879 -0.1571539 -0.04684831
| 24> O   4.51255854 0.68128848 -0.05428822
| 25> O   3.4110826 -0.89092759 -0.99666843
| 26> H   3.02902943 0.60602628 1.85398883
| 27> C   1.657986 -0.03597478 6.94292127
| 28> C   2.60803531 0.23136275 8.03354623
| 29> C   3.25453416 1.6235833 7.95372599
| 30> C   3.61008178 1.9808697 6.50108382
| 31> N   2.41834977 1.93844337 5.62151387
| 32> C   1.83698593 0.57011042 5.60644014
| 33> H   0.86011725 -0.73721267 7.09311087
| 34> H   2.12774768 0.10236731 9.02814546
| 35> H   3.4046121 -0.55141054 8.00479144
| 36> H   4.15837169 1.66285797 8.58861016
| 37> H   2.56368143 2.38252763 8.36731479
| 38> H   4.05085395 3.0001938 6.44341831
| 39> H   4.37445099 1.28046792 6.10091472
| 40> H   1.71634328 2.60520275 5.96188633
| 41> H   0.8760116 0.61329405 5.04088064
| 42> H   2.52192033 -0.08177691 5.00155473
| 43> H   2.88108672 2.24387647 3.79928044
| 44> H   2.4637829 3.14599819 2.62797977
| 45> O   3.06819163 2.43565984 2.85337915
| 46> *
| 47>
| 48>                          ****END OF INPUT****
 Total Charge           Charge          ....    0
 Multiplicity           Mult            ....    2
 Number of Electrons    NEL             ....  159
Dispersion correction           -0.074709038
FINAL SINGLE POINT ENERGY     -1047.488822821185
Dispersion correction            ... done
Dispersion correction           -0.075360597
FINAL SINGLE POINT ENERGY     -1047.496894153789
Dispersion correction            ... done
Dispersion correction           -0.076119612
FINAL SINGLE POINT ENERGY     -1047.497942224580
Dispersion correction            ... done
FINAL SINGLE POINT ENERGY     -1047.498972092130
FINAL SINGLE POINT ENERGY     -1047.499649848223
FINAL SINGLE POINT ENERGY     -1047.499511945151
FINAL SINGLE POINT ENERGY     -1047.499893457567
FINAL SINGLE POINT ENERGY     -1047.500079625125
FINAL SINGLE POINT ENERGY     -1047.500170581316
FINAL SINGLE POINT ENERGY     -1047.500318777375
FINAL SINGLE POINT ENERGY     -1047.502340498753
FINAL SINGLE POINT ENERGY     -1047.502372944512
FINAL SINGLE POINT ENERGY     -1047.502399366057
FINAL SINGLE POINT ENERGY     -1047.502410941551
FINAL SINGLE POINT ENERGY     -1047.502424021432
FINAL SINGLE POINT ENERGY     -1047.502434473293
FINAL SINGLE POINT ENERGY     -1047.502443651632
Dispersion correction            ... done
Dispersion correction           -0.078772163
FINAL SINGLE POINT ENERGY     -1047.502450827933
Dispersion correction            ... done
Dispersion correction           -0.078767070
FINAL SINGLE POINT ENERGY     -1047.502455000414
Dispersion correction            ... done
                    ***********************HURRAY********************

CARTESIAN COORDINATES (ANGSTROEM)
---------------------------------
  C     -0.640611    0.865799    1.222994
  C      0.723165    0.932080    1.487981
  C      1.543245   -0.178655    1.289579
  C      0.989997   -1.362125    0.813821
  C     -0.371246   -1.404132    0.550682
  C     -1.203054   -0.308860    0.748430
  H     -1.266501    1.732256    1.387730
  H      1.161203    1.846440    1.865361
  H      1.594720   -2.239386    0.643411
  H     -2.258658   -0.381975    0.536349
  N     -0.952841   -2.654774    0.049225
  O     -2.154358   -2.679889   -0.184564
  O     -0.212355   -3.616301   -0.112149
  C      3.019906   -0.074927    1.600403
  C      3.577149   -1.201231    2.446913
  H      4.644776   -1.060874    2.614546
  H      3.414656   -2.175283    1.990879
  H      3.069466   -1.177235    3.411250
  N      3.754858    0.002171    0.253598
  O      3.855850    1.105248   -0.257405
  O      4.168898   -1.028227   -0.247508
  H      3.218653    0.897267    2.046426
  C      0.920440    0.375856    6.331725
  C      2.074115   -0.302860    6.985196
  C      3.287944    0.634094    7.096908
  C      3.544567    1.352474    5.773148
  N      2.371751    2.094657    5.282311
  C      1.189621    1.218910    5.133953
  H     -0.094691    0.065941    6.547483
  H      1.796393   -0.696750    7.965237
  H      2.373672   -1.176029    6.379101
  H      4.176679    0.071156    7.393118
  H      3.100753    1.381588    7.874294
  H      4.374952    2.054339    5.868983
  H      3.817431    0.625979    5.002028
  H      2.147041    2.822135    5.955703
  H      0.329446    1.839345    4.877384
  H      1.381055    0.579015    4.259242
  H      2.846361    2.790571    3.734155
  H      2.598038    3.770137    2.539388
  O      3.203468    3.085419    2.846888

 Multiplicity           Mult            ....    2
 Number of Electrons    NEL             ....  159
 Basis Dimension        Dim             ....  771

ORBITAL ENERGIES
----------------
                 SPIN UP ORBITALS
  NO   OCC          E(Eh)            E(eV)
   0   1.0000     -19.174235      -521.7574
   1   1.0000     -19.172352      -521.7062
   2   1.0000     -19.171041      -521.6705
   3   1.0000     -19.170936      -521.6677
   4   1.0000     -19.098501      -519.6966
   5   1.0000     -14.564365      -396.3165
   6   1.0000     -14.554978      -396.0611
   7   1.0000     -14.309651      -389.3854
   8   1.0000     -10.242781      -278.7203
   9   1.0000     -10.238704      -278.6093
  10   1.0000     -10.210630      -277.8454
  11   1.0000     -10.204850      -277.6881
  12   1.0000     -10.202670      -277.6288
  13   1.0000     -10.197471      -277.4873
  14   1.0000     -10.193876      -277.3895
  15   1.0000     -10.190074      -277.2860
  16   1.0000     -10.186270      -277.1825
  17   1.0000     -10.171317      -276.7756
  18   1.0000     -10.169463      -276.7252
  19   1.0000     -10.163289      -276.5571
  20   1.0000     -10.159318      -276.4491
  21   1.0000      -1.244694       -33.8698
  22   1.0000      -1.243898       -33.8482
  23   1.0000      -1.071190       -29.1485
  24   1.0000      -1.069263       -29.0961
  25   1.0000      -0.979896       -26.6643
  26   1.0000      -0.914549       -24.8862
  27   1.0000      -0.902677       -24.5631
  28   1.0000      -0.850473       -23.1425
  29   1.0000      -0.807384       -21.9700
  30   1.0000      -0.783435       -21.3184
  31   1.0000      -0.765635       -20.8340
  32   1.0000      -0.749677       -20.3997
  33   1.0000      -0.712314       -19.3830
  34   1.0000      -0.702940       -19.1280
  35   1.0000      -0.645745       -17.5716
  36   1.0000      -0.640557       -17.4304
  37   1.0000      -0.616289       -16.7701
  38   1.0000      -0.610498       -16.6125
  39   1.0000      -0.593450       -16.1486
  40   1.0000      -0.575011       -15.6469
  41   1.0000      -0.558467       -15.1967
  42   1.0000      -0.551079       -14.9956
  43   1.0000      -0.549702       -14.9582
  44   1.0000      -0.539831       -14.6895
  45   1.0000      -0.531606       -14.4657
  46   1.0000      -0.525722       -14.3056
  47   1.0000      -0.512374       -13.9424
  48   1.0000      -0.508872       -13.8471
  49   1.0000      -0.492292       -13.3960
  50   1.0000      -0.486258       -13.2317
  51   1.0000      -0.455265       -12.3884
  52   1.0000      -0.454353       -12.3636
  53   1.0000      -0.451729       -12.2922
  54   1.0000      -0.443366       -12.0646
  55   1.0000      -0.430267       -11.7082
  56   1.0000      -0.419256       -11.4085
  57   1.0000      -0.410940       -11.1822
  58   1.0000      -0.407326       -11.0839
  59   1.0000      -0.396293       -10.7837
  60   1.0000      -0.392850       -10.6900
  61   1.0000      -0.388057       -10.5596
  62   1.0000      -0.384084       -10.4515
  63   1.0000      -0.374254       -10.1840
  64   1.0000      -0.368795       -10.0354
  65   1.0000      -0.366047        -9.9606
  66   1.0000      -0.349047        -9.4981
  67   1.0000      -0.334397        -9.0994
  68   1.0000      -0.333941        -9.0870
  69   1.0000      -0.333027        -9.0621
  70   1.0000      -0.331025        -9.0076
  71   1.0000      -0.323245        -8.7959
  72   1.0000      -0.322110        -8.7651
  73   1.0000      -0.312376        -8.5002
  74   1.0000      -0.310958        -8.4616
  75   1.0000      -0.295013        -8.0277
  76   1.0000      -0.286510        -7.7963
  77   1.0000      -0.278694        -7.5836
  78   1.0000      -0.242040        -6.5862
  79   1.0000      -0.189270        -5.1503
  80   0.0000      -0.105441        -2.8692
  81   0.0000      -0.083183        -2.2635
  82   0.0000      -0.037765        -1.0276
  83   0.0000      -0.009174        -0.2496
  84   0.0000       0.030033         0.8172

                 SPIN DOWN ORBITALS
  NO   OCC          E(Eh)            E(eV)
   0   1.0000     -19.174233      -521.7574
   1   1.0000     -19.172352      -521.7062
   2   1.0000     -19.171037      -521.6704
   3   1.0000     -19.170928      -521.6675
   4   1.0000     -19.098466      -519.6957
   5   1.0000     -14.564364      -396.3165
   6   1.0000     -14.554978      -396.0611
   7   1.0000     -14.309033      -389.3686
   8   1.0000     -10.242771      -278.7200
   9   1.0000     -10.238700      -278.6092
  10   1.0000     -10.210621      -277.8451
  11   1.0000     -10.204847      -277.6880
  12   1.0000     -10.202675      -277.6289
  13   1.0000     -10.197475      -277.4874
  14   1.0000     -10.193865      -277.3892
  15   1.0000     -10.190881      -277.3080
  16   1.0000     -10.186305      -277.1835
  17   1.0000     -10.171300      -276.7751
  18   1.0000     -10.164011      -276.5768
  19   1.0000     -10.158815      -276.4354
  20   1.0000     -10.155824      -276.3540
  21   1.0000      -1.244686       -33.8696
  22   1.0000      -1.243897       -33.8481
  23   1.0000      -1.071187       -29.1485
  24   1.0000      -1.069252       -29.0958
  25   1.0000      -0.979802       -26.6618
  26   1.0000      -0.912341       -24.8261
  27   1.0000      -0.902662       -24.5627
  28   1.0000      -0.850458       -23.1421
  29   1.0000      -0.807369       -21.9696
  30   1.0000      -0.776006       -21.1162
  31   1.0000      -0.765619       -20.8335
  32   1.0000      -0.740332       -20.1455
  33   1.0000      -0.712299       -19.3826
  34   1.0000      -0.702914       -19.1273
  35   1.0000      -0.645735       -17.5713
  36   1.0000      -0.638508       -17.3747
  37   1.0000      -0.610490       -16.6123
  38   1.0000      -0.607663       -16.5354
  39   1.0000      -0.593440       -16.1483
  40   1.0000      -0.575004       -15.6466
  41   1.0000      -0.551327       -15.0024
  42   1.0000      -0.550204       -14.9718
  43   1.0000      -0.546790       -14.8789
  44   1.0000      -0.539728       -14.6867
  45   1.0000      -0.531599       -14.4655
  46   1.0000      -0.525684       -14.3046
  47   1.0000      -0.512363       -13.9421
  48   1.0000      -0.508101       -13.8261
  49   1.0000      -0.490268       -13.3409
  50   1.0000      -0.486228       -13.2309
  51   1.0000      -0.455236       -12.3876
  52   1.0000      -0.452324       -12.3084
  53   1.0000      -0.450872       -12.2688
  54   1.0000      -0.439358       -11.9555
  55   1.0000      -0.420967       -11.4551
  56   1.0000      -0.419187       -11.4066
  57   1.0000      -0.410335       -11.1658
  58   1.0000      -0.401790       -10.9333
  59   1.0000      -0.396043       -10.7769
  60   1.0000      -0.392708       -10.6861
  61   1.0000      -0.384097       -10.4518
  62   1.0000      -0.383153       -10.4261
  63   1.0000      -0.373039       -10.1509
  64   1.0000      -0.367948       -10.0124
  65   1.0000      -0.364764        -9.9257
  66   1.0000      -0.347269        -9.4497
  67   1.0000      -0.333941        -9.0870
  68   1.0000      -0.332992        -9.0612
  69   1.0000      -0.331104        -9.0098
  70   1.0000      -0.330883        -9.0038
  71   1.0000      -0.323161        -8.7937
  72   1.0000      -0.319024        -8.6811
  73   1.0000      -0.312359        -8.4997
  74   1.0000      -0.310937        -8.4610
  75   1.0000      -0.294973        -8.0266
  76   1.0000      -0.286386        -7.7930
  77   1.0000      -0.278628        -7.5818
  78   1.0000      -0.239140        -6.5073
  79   0.0000      -0.105510        -2.8711
  80   0.0000      -0.083179        -2.2634
  81   0.0000      -0.051895        -1.4121
  82   0.0000      -0.037239        -1.0133
  83   0.0000      -0.008998        -0.2448

MULLIKEN ATOMIC CHARGES AND SPIN POPULATIONS
--------------------------------------------
   0 C :   -0.098083    0.000669
   1 C :   -0.172758    0.001059
   2 C :    0.109259   -0.001056
   3 C :   -0.218016    0.000631
   4 C :    0.120191    0.000499
   5 C :   -0.183581   -0.000351
   6 H :    0.158170   -0.000043
   7 H :    0.116283   -0.000340
   8 H :    0.172587    0.000002
   9 H :    0.170696    0.000019
  10 N :    0.457440    0.000037
  11 O :   -0.353404    0.000277
  12 O :   -0.352289    0.000153
  13 C :    0.048689    0.001095
  14 C :   -0.382764    0.000385
  15 H :    0.145622    0.000026
  16 H :    0.149130    0.000029
  17 H :    0.151115   -0.000470
  18 N :    0.433517   -0.000055
  19 O :   -0.349099    0.000027
  20 O :   -0.340198    0.000042
  21 H :    0.161984    0.000448
  22 C :   -0.226041    0.987163
  23 C :   -0.140091   -0.066722
  24 C :   -0.177777    0.018125
  25 C :   -0.116413   -0.007852
  26 N :   -0.388626    0.017956
  27 C :   -0.087659   -0.059289
  28 H :    0.133648   -0.039374
  29 H :    0.111193    0.006390
  30 H :    0.096712    0.065506
  31 H :    0.098864    0.001913
  32 H :    0.092456    0.004352
  33 H :    0.120023    0.000885
  34 H :    0.117226    0.001741
  35 H :    0.216416    0.004857
  36 H :    0.123392    0.007781
  37 H :    0.116204    0.052258
  38 H :    0.344978    0.000478
  39 H :    0.336277    0.000101
  40 O :   -0.715275    0.000646
Sum of atomic charges         :    0.0000000

LOEWDIN ATOMIC CHARGES AND SPIN POPULATIONS
-------------------------------------------
   0 C :   -0.108868    0.000515
   1 C :   -0.068711    0.000818
   2 C :   -0.123198    0.000873
   3 C :   -0.045782    0.000350
   4 C :   -0.151068    0.000470
   5 C :   -0.077439   -0.000110
   6 H :    0.159329    0.000002
   7 H :    0.156969    0.000144
   8 H :    0.165765    0.000004
   9 H :    0.162580    0.000001
  10 N :   -0.012933    0.000114
  11 O :   -0.048430    0.000258
  12 O :   -0.048645    0.000141
  13 C :   -0.204625    0.000731
  14 C :   -0.263682    0.000983
  15 H :    0.133373    0.000018
  16 H :    0.129811    0.000029
  17 H :    0.136543    0.000969
  18 N :   -0.030007    0.000042
  19 O :   -0.048605    0.000028
  20 O :   -0.037011    0.000062
  21 H :    0.167218    0.000185
  22 C :   -0.140578    0.739120
  23 C :   -0.273733    0.063885
  24 C :   -0.258483    0.015919
  25 C :   -0.296957    0.001829
  26 N :    0.005645    0.016705
  27 C :   -0.313591    0.065361
  28 H :    0.125526    0.002392
  29 H :    0.139412    0.004053
  30 H :    0.146615    0.039844
  31 H :    0.135484    0.000757
  32 H :    0.134317    0.001174
  33 H :    0.132126    0.000952
  34 H :    0.135723    0.000606
  35 H :    0.176248    0.002351
  36 H :    0.138284    0.005003
  37 H :    0.144139    0.032002
  38 H :    0.133380    0.000561
  39 H :    0.153702    0.000059
  40 O :   -0.359843    0.000802

  Mayer bond orders larger than 0.100000
B(  0-C ,  1-C ) :   1.3978 B(  0-C ,  5-C ) :   1.4065 B(  0-C ,  6-H ) :   0.9751
B(  1-C ,  2-C ) :   1.3435 B(  1-C ,  7-H ) :   0.9372 B(  2-C ,  3-C ) :   1.3824
B(  2-C , 13-C ) :   0.9074 B(  3-C ,  4-C ) :   1.4221 B(  3-C ,  8-H ) :   0.9157
B(  4-C ,  5-C ) :   1.3429 B(  4-C , 10-N ) :   0.9998 B(  5-C ,  9-H ) :   0.9444
B(  7-H , 40-O ) :   0.1470 B( 10-N , 11-O ) :   1.5883 B( 10-N , 12-O ) :   1.5908
B( 11-O , 12-O ) :   0.1930 B( 13-C , 14-C ) :   0.9565 B( 13-C , 18-N ) :   0.8044
B( 13-C , 21-H ) :   0.9497 B( 14-C , 15-H ) :   0.9704 B( 14-C , 16-H ) :   0.9488
B( 14-C , 17-H ) :   0.9655 B( 18-N , 19-O ) :   1.6250 B( 18-N , 20-O ) :   1.6167
B( 19-O , 20-O ) :   0.2105 B( 22-C , 23-C ) :   1.0154 B( 22-C , 27-C ) :   1.0286
B( 22-C , 28-H ) :   0.9671 B( 23-C , 24-C ) :   0.9737 B( 23-C , 29-H ) :   0.9661
B( 23-C , 30-H ) :   0.9353 B( 24-C , 25-C ) :   0.9868 B( 24-C , 31-H ) :   0.9643
B( 24-C , 32-H ) :   0.9632 B( 25-C , 26-N ) :   0.9486 B( 25-C , 33-H ) :   0.9619
B( 25-C , 34-H ) :   0.9702 B( 26-N , 27-C ) :   0.9490 B( 26-N , 35-H ) :   0.9130
B( 26-N , 38-H ) :   0.1711 B( 27-C , 36-H ) :   0.9595 B( 27-C , 37-H ) :   0.9532
B( 38-H , 40-O ) :   0.7672 B( 39-H , 40-O ) :   0.8891

Dispersion correction           -0.078762779
FINAL SINGLE POINT ENERGY     -1047.502457771187

DIPOLE MOMENT
-------------
                                X             Y             Z
Electronic contribution:    -10.42514     -11.57048     -30.08540
Nuclear contribution   :      9.55766      13.31483      34.04633
                        -----------------------------------------
Total Dipole Moment    :     -0.86749       1.74435       3.96094
                        -----------------------------------------
Magnitude (a.u.)       :      4.41410
Magnitude (Debye)      :     11.21976

Rotational constants in cm-1:     0.011887     0.005750     0.004810
Rotational constants in MHz :   356.355970   172.378454   144.206878

                             ****ORCA TERMINATED NORMALLY****
TOTAL RUN TIME: 0 days 1 hours 43 minutes 45 seconds 829 msec
