                         Program Version 5.0.0 -  RELEASE  -
|  1> !  opt B3LYP def2-TZVP CPCM D3
|  2> %pal nprocs 18 end
|  3> %cpcm epsilon 78.4 end
|  4> *xyz 0 1
|  5> C   0.56394 -0.78932 0.40612
|  6> H   0.87302 -1.453 -0.4274
|  7> H   1.04773 0.1988 0.23749
|  8> H   0.97752 -1.20221 1.34992
|  9> N   -0.88335 -0.6387 0.46568
| 10> O   -1.41996 -0.44427 1.54743
| 11> O   -1.53217 -0.70145 -0.5692
| 12> H   3.96644 -1.74909 0.21145
| 13> O   3.25667 -1.26342 0.64883
| 14> H   3.45185 -0.34098 0.44297
| 15> *
| 16>
| 17>                          ****END OF INPUT****
 Total Charge           Charge          ....    0
 Multiplicity           Mult            ....    1
 Number of Electrons    NEL             ....   42
 Basis Dimension        Dim             ....  185

ORBITAL ENERGIES
----------------

  NO   OCC          E(Eh)            E(eV)
   0   2.0000     -19.167387      -521.5711
   1   2.0000     -19.167188      -521.5657
   2   2.0000     -19.123094      -520.3658
   3   2.0000     -14.557915      -396.1410
   4   2.0000     -10.219990      -278.1001
   5   2.0000      -1.242578       -33.8123
   6   2.0000      -1.062290       -28.9064
   7   2.0000      -1.009173       -27.4610
   8   2.0000      -0.817768       -22.2526
   9   2.0000      -0.621703       -16.9174
  10   2.0000      -0.554173       -15.0798
  11   2.0000      -0.547961       -14.9108
  12   2.0000      -0.531798       -14.4710
  13   2.0000      -0.522735       -14.2243
  14   2.0000      -0.423952       -11.5363
  15   2.0000      -0.411041       -11.1850
  16   2.0000      -0.389331       -10.5942
  17   2.0000      -0.330163        -8.9842
  18   2.0000      -0.328409        -8.9365
  19   2.0000      -0.314622        -8.5613
  20   2.0000      -0.302440        -8.2298
  21   0.0000      -0.083172        -2.2632
  22   0.0000       0.026685         0.7261
  23   0.0000       0.070289         1.9126
  24   0.0000       0.104092         2.8325
  25   0.0000       0.113398         3.0857

MULLIKEN ATOMIC CHARGES
-----------------------
   0 C :   -0.277127
   1 H :    0.167548
   2 H :    0.180438
   3 H :    0.176231
   4 N :    0.443067
   5 O :   -0.355474
   6 O :   -0.356015
   7 H :    0.356475
   8 O :   -0.695736
   9 H :    0.360594
Sum of atomic charges:   -0.0000000

LOEWDIN ATOMIC CHARGES
----------------------
   0 C :   -0.284551
   1 H :    0.140550
   2 H :    0.152020
   3 H :    0.140930
   4 N :   -0.067995
   5 O :   -0.064527
   6 O :   -0.064640
   7 H :    0.172185
   8 O :   -0.298767
   9 H :    0.174794

  Mayer bond orders larger than 0.100000
B(  0-C ,  1-H ) :   0.9462 B(  0-C ,  2-H ) :   0.9299 B(  0-C ,  3-H ) :   0.9458
B(  0-C ,  4-N ) :   0.8838 B(  4-N ,  5-O ) :   1.6018 B(  4-N ,  6-O ) :   1.5967
B(  5-O ,  6-O ) :   0.2083 B(  7-H ,  8-O ) :   0.8803 B(  8-O ,  9-H ) :   0.8789

Dispersion correction           -0.008208054
FINAL SINGLE POINT ENERGY      -321.451436658089
Dispersion correction            ... done
Dispersion correction           -0.008156575
FINAL SINGLE POINT ENERGY      -321.454371356277
Dispersion correction            ... done
Dispersion correction           -0.008092403
FINAL SINGLE POINT ENERGY      -321.455446596727
Dispersion correction            ... done
FINAL SINGLE POINT ENERGY      -321.456079468075
FINAL SINGLE POINT ENERGY      -321.456499817796
FINAL SINGLE POINT ENERGY      -321.456707761288
FINAL SINGLE POINT ENERGY      -321.456843642215
FINAL SINGLE POINT ENERGY      -321.456920530499
FINAL SINGLE POINT ENERGY      -321.456960823160
FINAL SINGLE POINT ENERGY      -321.456972637761
FINAL SINGLE POINT ENERGY      -321.457473975619
FINAL SINGLE POINT ENERGY      -321.457514971873
FINAL SINGLE POINT ENERGY      -321.457550246513
FINAL SINGLE POINT ENERGY      -321.457563887136
FINAL SINGLE POINT ENERGY      -321.457569563814
FINAL SINGLE POINT ENERGY      -321.457571910520
FINAL SINGLE POINT ENERGY      -321.457573942076
Dispersion correction           -0.007819154
FINAL SINGLE POINT ENERGY      -321.457574781537
Dispersion correction            ... done
Dispersion correction           -0.007822949
FINAL SINGLE POINT ENERGY      -321.457577873121
Dispersion correction            ... done

CARTESIAN COORDINATES (ANGSTROEM)
---------------------------------
  C      0.536577   -0.852193    0.384556
  H      0.672498   -1.763213   -0.189034
  H      1.006594   -0.014615   -0.127846
  H      0.893873   -0.942062    1.403059
  N     -0.925406   -0.553860    0.427032
  O     -1.406516   -0.170816    1.481757
  O     -1.559275   -0.690409   -0.607290
  H      3.676091   -0.904444   -0.239903
  O      3.808408   -1.509685    0.500199
  H      3.598844   -0.982344    1.280758

Dispersion correction           -0.007828535
FINAL SINGLE POINT ENERGY      -321.457584190075
Dispersion correction            ... done

DIPOLE MOMENT
-------------
                                X             Y             Z
Electronic contribution:     -6.86190       1.29712      -0.43124
Nuclear contribution   :      8.24995      -0.73083      -0.00950
                        -----------------------------------------
Total Dipole Moment    :      1.38805       0.56629      -0.44074
                        -----------------------------------------
Magnitude (a.u.)       :      1.56257
Magnitude (Debye)      :      3.97173

Rotational constants in cm-1:     0.399533     0.047251     0.042721
Rotational constants in MHz : 11977.687823  1416.549285  1280.738763

                             ****ORCA TERMINATED NORMALLY****
TOTAL RUN TIME: 0 days 0 hours 8 minutes 46 seconds 629 msec
