                         Program Version 5.0.4 -  RELEASE  -
|  1> !  opt B3LYP def2-TZVP CPCM D3
|  2> %pal nprocs 102 end
|  3> %cpcm epsilon 78.4 end
|  4> *xyz 0 2
|  5> C   0.63945149 0.99302873 -0.73394264
|  6> C   0.75412755 -0.28601012 -1.27370177
|  7> C   -0.21331345 -1.26483411 -1.0046492
|  8> C   -1.31129008 -0.94998894 -0.1972446
|  9> C   -1.41714247 0.34334302 0.32406471
| 10> C   -0.44916917 1.32201552 0.06833698
| 11> H   1.40964669 1.74134599 -0.93841433
| 12> H   1.60582278 -0.52983677 -1.91328867
| 13> H   -2.07528974 -1.70695917 0.01179701
| 14> H   -0.5444723 2.32682093 0.49099037
| 15> N   -2.55661519 0.67106916 1.14562988
| 16> O   -2.65995883 1.80485528 1.59802424
| 17> O   -3.39874607 -0.18658001 1.37765755
| 18> C   -0.09437958 -2.61201871 -1.54237301
| 19> C   -0.07681666 -3.74551384 -0.57611385
| 20> H   0.13839554 -4.71052325 -1.05946984
| 21> H   -1.04538038 -3.85443642 -0.06119597
| 22> H   0.68976045 -3.59877467 0.20001129
| 23> N   -0.0547339 -2.81267261 -2.85992584
| 24> O   0.02930051 -3.96990061 -3.3581216
| 25> O   -0.10485068 -1.84224533 -3.66657516
| 26> H   2.21469504 -2.90189429 -1.92848409
| 27> C   5.09894266 -6.45053007 -5.06054057
| 28> N   4.12139023 -6.90349298 -5.88149658
| 29> C   2.74316051 -6.40609739 -5.75356018
| 30> C   2.5160312 -5.61984058 -4.45645609
| 31> N   3.61994168 -4.60317362 -4.30155514
| 32> C   4.93247268 -5.33015663 -4.10072245
| 33> H   6.06812358 -6.92990399 -5.09695282
| 34> H   4.21098007 -7.84133129 -6.26727725
| 35> H   2.01759956 -7.25287956 -5.81406903
| 36> H   2.5278561 -5.76103252 -6.64412751
| 37> H   1.5270363 -5.09507923 -4.4836701
| 38> H   2.49932804 -6.29160445 -3.56740737
| 39> H   3.67411076 -4.0077803 -5.15859011
| 40> H   5.76731542 -4.59000366 -4.1995914
| 41> H   4.98095883 -5.70894538 -3.04617157
| 42> H   3.51112679 -3.36681421 -1.23808856
| 43> H   3.42897493 -3.96602386 -3.4805076
| 44> O   3.17005583 -2.97765819 -2.05879457
| 45> *
| 46>
| 47>                          ****END OF INPUT****
 Total Charge           Charge          ....    0
 Multiplicity           Mult            ....    2
 Number of Electrons    NEL             ....  159
Dispersion correction           -0.073966832
FINAL SINGLE POINT ENERGY     -1063.517444291998
Dispersion correction            ... done
Dispersion correction           -0.075942709
FINAL SINGLE POINT ENERGY     -1063.524012785846
Dispersion correction            ... done
Dispersion correction           -0.073559945
FINAL SINGLE POINT ENERGY     -1063.523900861171
Dispersion correction            ... done
FINAL SINGLE POINT ENERGY     -1063.528578098366
FINAL SINGLE POINT ENERGY     -1063.530643210319
FINAL SINGLE POINT ENERGY     -1063.531907842539
FINAL SINGLE POINT ENERGY     -1063.533867728619
FINAL SINGLE POINT ENERGY     -1063.535810124586
FINAL SINGLE POINT ENERGY     -1063.537539500272
FINAL SINGLE POINT ENERGY     -1063.539107644916
FINAL SINGLE POINT ENERGY     -1063.553799323688
FINAL SINGLE POINT ENERGY     -1063.553800440573
FINAL SINGLE POINT ENERGY     -1063.553802928445
FINAL SINGLE POINT ENERGY     -1063.553803363533
FINAL SINGLE POINT ENERGY     -1063.553804009100
FINAL SINGLE POINT ENERGY     -1063.553805373634
FINAL SINGLE POINT ENERGY     -1063.553807546779
Dispersion correction            ... done
Dispersion correction           -0.078079448
FINAL SINGLE POINT ENERGY     -1063.553808711554
Dispersion correction            ... done
Dispersion correction           -0.078084129
FINAL SINGLE POINT ENERGY     -1063.553810556051
Dispersion correction            ... done
                    ***********************HURRAY********************

CARTESIAN COORDINATES (ANGSTROEM)
---------------------------------
  C      1.730656    0.031849   -1.396323
  C      1.324960   -1.224100   -1.826052
  C      0.069232   -1.757689   -1.468686
  C     -0.752314   -0.960411   -0.656055
  C     -0.324932    0.292774   -0.245816
  C      0.911167    0.817930   -0.598557
  H      2.706193    0.401318   -1.684466
  H      1.987123   -1.807890   -2.442038
  H     -1.729085   -1.299900   -0.352862
  H      1.213994    1.796100   -0.259441
  N     -1.221589    1.097009    0.589633
  O     -0.830226    2.193416    0.973481
  O     -2.325017    0.642806    0.870330
  C     -0.405892   -3.089067   -1.841478
  C     -1.420624   -3.812203   -1.005750
  H     -1.166944   -4.870138   -0.938759
  H     -2.427371   -3.752744   -1.433389
  H     -1.454176   -3.400959    0.001187
  N     -0.040390   -3.687414   -2.976537
  O     -0.510090   -4.834134   -3.292115
  O      0.798107   -3.132921   -3.810746
  H      1.484735   -4.187818   -0.621437
  C      4.396843   -4.027498   -5.229244
  N      4.107837   -5.228254   -5.858449
  C      2.902378   -5.934007   -5.428856
  C      2.855595   -6.016379   -3.914921
  N      2.985687   -4.649176   -3.335205
  C      4.268550   -3.998822   -3.748387
  H      5.145364   -3.403103   -5.695560
  H      4.232322   -5.217898   -6.860840
  H      2.910676   -6.942448   -5.840340
  H      1.999377   -5.424440   -5.787750
  H      1.908300   -6.431033   -3.578334
  H      3.676927   -6.617325   -3.524165
  H      2.164156   -4.052835   -3.637784
  H      4.268613   -2.979200   -3.367661
  H      5.065901   -4.557166   -3.238034
  H      2.128827   -5.516559   -0.204625
  H      2.918647   -4.698036   -2.304645
  O      2.340930   -4.633695   -0.535894

 Multiplicity           Mult            ....    2
 Number of Electrons    NEL             ....  159
 Basis Dimension        Dim             ....  765

ORBITAL ENERGIES
----------------
                 SPIN UP ORBITALS
  NO   OCC          E(Eh)            E(eV)
   0   1.0000     -19.166156      -521.5376
   1   1.0000     -19.166037      -521.5344
   2   1.0000     -19.140751      -520.8463
   3   1.0000     -19.097797      -519.6775
   4   1.0000     -19.095020      -519.6019
   5   1.0000     -14.559100      -396.1732
   6   1.0000     -14.481887      -394.0722
   7   1.0000     -14.391318      -391.6077
   8   1.0000     -14.334603      -390.0644
   9   1.0000     -10.233229      -278.4603
  10   1.0000     -10.218197      -278.0513
  11   1.0000     -10.217415      -278.0300
  12   1.0000     -10.207214      -277.7524
  13   1.0000     -10.202340      -277.6198
  14   1.0000     -10.200451      -277.5684
  15   1.0000     -10.193105      -277.3685
  16   1.0000     -10.191200      -277.3166
  17   1.0000     -10.190362      -277.2939
  18   1.0000     -10.184190      -277.1259
  19   1.0000     -10.183459      -277.1060
  20   1.0000     -10.161103      -276.4977
  21   1.0000      -1.239115       -33.7180
  22   1.0000      -1.142261       -31.0825
  23   1.0000      -1.063335       -28.9348
  24   1.0000      -1.023801       -27.8590
  25   1.0000      -0.989749       -26.9324
  26   1.0000      -0.965583       -26.2749
  27   1.0000      -0.927196       -25.2303
  28   1.0000      -0.889571       -24.2065
  29   1.0000      -0.837019       -22.7764
  30   1.0000      -0.798659       -21.7326
  31   1.0000      -0.784729       -21.3536
  32   1.0000      -0.760474       -20.6935
  33   1.0000      -0.714943       -19.4546
  34   1.0000      -0.705978       -19.2106
  35   1.0000      -0.693882       -18.8815
  36   1.0000      -0.661067       -17.9885
  37   1.0000      -0.633440       -17.2368
  38   1.0000      -0.601634       -16.3713
  39   1.0000      -0.597579       -16.2610
  40   1.0000      -0.574625       -15.6363
  41   1.0000      -0.560536       -15.2530
  42   1.0000      -0.545684       -14.8488
  43   1.0000      -0.540921       -14.7192
  44   1.0000      -0.539110       -14.6699
  45   1.0000      -0.529165       -14.3993
  46   1.0000      -0.524302       -14.2670
  47   1.0000      -0.502971       -13.6865
  48   1.0000      -0.495038       -13.4707
  49   1.0000      -0.490037       -13.3346
  50   1.0000      -0.484435       -13.1822
  51   1.0000      -0.478607       -13.0236
  52   1.0000      -0.472946       -12.8695
  53   1.0000      -0.470106       -12.7922
  54   1.0000      -0.457072       -12.4376
  55   1.0000      -0.444225       -12.0880
  56   1.0000      -0.439603       -11.9622
  57   1.0000      -0.416143       -11.3238
  58   1.0000      -0.412822       -11.2335
  59   1.0000      -0.408970       -11.1287
  60   1.0000      -0.401158       -10.9161
  61   1.0000      -0.389940       -10.6108
  62   1.0000      -0.384991       -10.4761
  63   1.0000      -0.382422       -10.4062
  64   1.0000      -0.375361       -10.2141
  65   1.0000      -0.373199       -10.1553
  66   1.0000      -0.366549        -9.9743
  67   1.0000      -0.358483        -9.7548
  68   1.0000      -0.330002        -8.9798
  69   1.0000      -0.328931        -8.9507
  70   1.0000      -0.327204        -8.9037
  71   1.0000      -0.314606        -8.5609
  72   1.0000      -0.307002        -8.3540
  73   1.0000      -0.290648        -7.9089
  74   1.0000      -0.286022        -7.7831
  75   1.0000      -0.274945        -7.4816
  76   1.0000      -0.272687        -7.4202
  77   1.0000      -0.244903        -6.6642
  78   1.0000      -0.196804        -5.3553
  79   1.0000      -0.157644        -4.2897
  80   0.0000      -0.099880        -2.7179
  81   0.0000      -0.044767        -1.2182
  82   0.0000      -0.005647        -0.1537
  83   0.0000       0.013896         0.3781
  84   0.0000       0.035955         0.9784

                 SPIN DOWN ORBITALS
  NO   OCC          E(Eh)            E(eV)
   0   1.0000     -19.166156      -521.5376
   1   1.0000     -19.166038      -521.5344
   2   1.0000     -19.140741      -520.8460
   3   1.0000     -19.097719      -519.6754
   4   1.0000     -19.095012      -519.6017
   5   1.0000     -14.559100      -396.1732
   6   1.0000     -14.481881      -394.0720
   7   1.0000     -14.390905      -391.5964
   8   1.0000     -14.329584      -389.9278
   9   1.0000     -10.233230      -278.4603
  10   1.0000     -10.218652      -278.0637
  11   1.0000     -10.217328      -278.0276
  12   1.0000     -10.207088      -277.7490
  13   1.0000     -10.202341      -277.6198
  14   1.0000     -10.200440      -277.5681
  15   1.0000     -10.191199      -277.3166
  16   1.0000     -10.190359      -277.2938
  17   1.0000     -10.184191      -277.1259
  18   1.0000     -10.183456      -277.1059
  19   1.0000     -10.182008      -277.0665
  20   1.0000     -10.161103      -276.4977
  21   1.0000      -1.239115       -33.7180
  22   1.0000      -1.142217       -31.0813
  23   1.0000      -1.063335       -28.9348
  24   1.0000      -1.023770       -27.8582
  25   1.0000      -0.987626       -26.8747
  26   1.0000      -0.965318       -26.2676
  27   1.0000      -0.917662       -24.9709
  28   1.0000      -0.889566       -24.2063
  29   1.0000      -0.836990       -22.7756
  30   1.0000      -0.798652       -21.7324
  31   1.0000      -0.779035       -21.1986
  32   1.0000      -0.760462       -20.6932
  33   1.0000      -0.710236       -19.3265
  34   1.0000      -0.705765       -19.2048
  35   1.0000      -0.693827       -18.8800
  36   1.0000      -0.655292       -17.8314
  37   1.0000      -0.633419       -17.2362
  38   1.0000      -0.601561       -16.3693
  39   1.0000      -0.591185       -16.0870
  40   1.0000      -0.574591       -15.6354
  41   1.0000      -0.557101       -15.1595
  42   1.0000      -0.545683       -14.8488
  43   1.0000      -0.540649       -14.7118
  44   1.0000      -0.537371       -14.6226
  45   1.0000      -0.528487       -14.3809
  46   1.0000      -0.523438       -14.2435
  47   1.0000      -0.502881       -13.6841
  48   1.0000      -0.493443       -13.4273
  49   1.0000      -0.489684       -13.3250
  50   1.0000      -0.484214       -13.1761
  51   1.0000      -0.476546       -12.9675
  52   1.0000      -0.470853       -12.8126
  53   1.0000      -0.464495       -12.6396
  54   1.0000      -0.457030       -12.4364
  55   1.0000      -0.444191       -12.0870
  56   1.0000      -0.427322       -11.6280
  57   1.0000      -0.413981       -11.2650
  58   1.0000      -0.411798       -11.2056
  59   1.0000      -0.408564       -11.1176
  60   1.0000      -0.400849       -10.9077
  61   1.0000      -0.389382       -10.5956
  62   1.0000      -0.384518       -10.4633
  63   1.0000      -0.380742       -10.3605
  64   1.0000      -0.375114       -10.2074
  65   1.0000      -0.371101       -10.0982
  66   1.0000      -0.363470        -9.8905
  67   1.0000      -0.358468        -9.7544
  68   1.0000      -0.329073        -8.9545
  69   1.0000      -0.328924        -8.9505
  70   1.0000      -0.327201        -8.9036
  71   1.0000      -0.307002        -8.3540
  72   1.0000      -0.290625        -7.9083
  73   1.0000      -0.286413        -7.7937
  74   1.0000      -0.280887        -7.6433
  75   1.0000      -0.274865        -7.4795
  76   1.0000      -0.272500        -7.4151
  77   1.0000      -0.244773        -6.6606
  78   1.0000      -0.196713        -5.3528
  79   0.0000      -0.099879        -2.7179
  80   0.0000      -0.045529        -1.2389
  81   0.0000      -0.038825        -1.0565
  82   0.0000      -0.005613        -0.1527
  83   0.0000       0.014835         0.4037

MULLIKEN ATOMIC CHARGES AND SPIN POPULATIONS
--------------------------------------------
   0 C :   -0.133511   -0.000114
   1 C :   -0.171553    0.000754
   2 C :    0.229760    0.000341
   3 C :   -0.256506    0.000111
   4 C :    0.115467   -0.000082
   5 C :   -0.185048    0.000268
   6 H :    0.146192    0.000015
   7 H :    0.180249    0.000040
   8 H :    0.175009    0.000005
   9 H :    0.162695   -0.000009
  10 N :    0.453475    0.000006
  11 O :   -0.360417   -0.000015
  12 O :   -0.360955    0.000017
  13 C :   -0.189725    0.000285
  14 C :   -0.375659   -0.000089
  15 H :    0.127217   -0.000003
  16 H :    0.129527    0.000035
  17 H :    0.129281    0.000004
  18 N :    0.455161    0.000575
  19 O :   -0.554341    0.000166
  20 O :   -0.603573    0.001869
  21 H :    0.363661    0.000205
  22 C :   -0.233667    0.797183
  23 N :   -0.279166    0.180239
  24 C :   -0.101149    0.010571
  25 C :   -0.133665   -0.017991
  26 N :   -0.126754    0.007939
  27 C :   -0.094580   -0.044692
  28 H :    0.148387   -0.028822
  29 H :    0.249558   -0.005087
  30 H :    0.140045   -0.000216
  31 H :    0.104862    0.025720
  32 H :    0.148192    0.000237
  33 H :    0.140685    0.009790
  34 H :    0.285136   -0.003247
  35 H :    0.157297    0.005522
  36 H :    0.132802    0.059043
  37 H :    0.371243    0.000105
  38 H :    0.298667   -0.000913
  39 O :   -0.684302    0.000238
Sum of atomic charges         :    0.0000000

LOEWDIN ATOMIC CHARGES AND SPIN POPULATIONS
-------------------------------------------
   0 C :   -0.127690   -0.000009
   1 C :   -0.082153    0.000232
   2 C :   -0.124301    0.000056
   3 C :   -0.059388    0.000028
   4 C :   -0.165988    0.000004
   5 C :   -0.101680    0.000161
   6 H :    0.155659   -0.000000
   7 H :    0.153250   -0.000023
   8 H :    0.162332    0.000000
   9 H :    0.157663    0.000000
  10 N :   -0.012422    0.000004
  11 O :   -0.057360   -0.000013
  12 O :   -0.057881    0.000016
  13 C :   -0.250598    0.000400
  14 C :   -0.280845    0.000069
  15 H :    0.127374    0.000009
  16 H :    0.128286    0.000021
  17 H :    0.131078    0.000007
  18 N :   -0.026457    0.000292
  19 O :   -0.253981    0.000204
  20 O :   -0.262218    0.002298
  21 H :    0.169503    0.000078
  22 C :   -0.289280    0.616364
  23 N :    0.066581    0.208269
  24 C :   -0.275148    0.025918
  25 C :   -0.236585    0.004660
  26 N :    0.202169    0.009449
  27 C :   -0.257221    0.068442
  28 H :    0.129813    0.004262
  29 H :    0.192994    0.004494
  30 H :    0.144860    0.000072
  31 H :    0.128984    0.010914
  32 H :    0.143580    0.000009
  33 H :    0.144531    0.003096
  34 H :    0.189134    0.001853
  35 H :    0.149675    0.003741
  36 H :    0.142616    0.033889
  37 H :    0.182518    0.000096
  38 H :    0.196566    0.000381
  39 O :   -0.277970    0.000256

  Mayer bond orders larger than 0.100000
B(  0-C ,  1-C ) :   1.4322 B(  0-C ,  5-C ) :   1.3876 B(  0-C ,  6-H ) :   0.9842
B(  1-C ,  2-C ) :   1.2945 B(  1-C ,  7-H ) :   0.9289 B(  2-C ,  3-C ) :   1.3723
B(  2-C , 13-C ) :   1.0480 B(  3-C ,  4-C ) :   1.4168 B(  3-C ,  8-H ) :   0.9209
B(  4-C ,  5-C ) :   1.3371 B(  4-C , 10-N ) :   1.0042 B(  5-C ,  9-H ) :   0.9530
B( 10-N , 11-O ) :   1.5840 B( 10-N , 12-O ) :   1.5825 B( 11-O , 12-O ) :   0.1870
B( 13-C , 14-C ) :   0.9911 B( 13-C , 18-N ) :   1.4660 B( 13-C , 19-O ) :   0.1163
B( 13-C , 20-O ) :   0.1243 B( 14-C , 15-H ) :   0.9476 B( 14-C , 16-H ) :   0.9671
B( 14-C , 17-H ) :   0.9767 B( 18-N , 19-O ) :   1.3051 B( 18-N , 20-O ) :   1.1565
B( 20-O , 34-H ) :   0.1709 B( 21-H , 39-O ) :   0.8680 B( 22-C , 23-N ) :   1.2260
B( 22-C , 27-C ) :   1.0181 B( 22-C , 28-H ) :   0.9652 B( 23-N , 24-C ) :   0.9600
B( 23-N , 29-H ) :   0.9086 B( 24-C , 25-C ) :   1.0033 B( 24-C , 30-H ) :   0.9601
B( 24-C , 31-H ) :   0.9574 B( 25-C , 26-N ) :   0.9059 B( 25-C , 32-H ) :   0.9520
B( 25-C , 33-H ) :   0.9522 B( 26-N , 27-C ) :   0.9114 B( 26-N , 34-H ) :   0.7870
B( 26-N , 38-H ) :   0.8481 B( 27-C , 35-H ) :   0.9578 B( 27-C , 36-H ) :   0.9378
B( 37-H , 39-O ) :   0.8674

Dispersion correction           -0.078083464
FINAL SINGLE POINT ENERGY     -1063.553812203993

DIPOLE MOMENT
-------------
                                X             Y             Z
Electronic contribution:    -12.04957      19.49852       9.51871
Nuclear contribution   :     16.95939     -23.10686     -10.65476
                        -----------------------------------------
Total Dipole Moment    :      4.90981      -3.60834      -1.13604
                        -----------------------------------------
Magnitude (a.u.)       :      6.19814
Magnitude (Debye)      :     15.75443

Rotational constants in cm-1:     0.020755     0.004460     0.004057
Rotational constants in MHz :   622.228172   133.693904   121.638604

                             ****ORCA TERMINATED NORMALLY****
TOTAL RUN TIME: 0 days 3 hours 44 minutes 43 seconds 692 msec
