                         Program Version 5.0.4 -  RELEASE  -
|  1> !  NUMFREQ B3LYP def2-TZVP CPCM D3
|  2> %pal nprocs 102 end
|  3> %cpcm epsilon 78.4 end
|  4> *xyz 0 1
|  5> C   0.67934903613472 -0.35034420289173 -0.22463899162346
|  6> H   0.24782331028531 0.64329355202595 -0.27209112909852
|  7> N   -0.9307254006079 -1.32121502858168 1.42879259932698
|  8> O   -1.80172653454624 -1.0353196013514 0.62640786080068
|  9> O   -1.14192942305155 -1.81233820026319 2.52683535098237
| 10> H   1.79042723786781 -1.83614642703498 -1.22365145327028
| 11> C   0.52107044799973 -1.08545087582903 1.06003864825732
| 12> H   0.96511414062524 -2.08354744433694 1.03603276228062
| 13> H   0.92385836489952 -0.53883386963179 1.91371702972381
| 14> C   1.35090917700246 -0.84612553170521 -1.25662115522558
| 15> H   1.48416544825033 -0.27200551264712 -2.1652076261791
| 16> C   5.44325866004611 -3.67789123441357 0.1185786795223
| 17> C   6.73066998487916 -3.16572165562107 -0.00809558928823
| 18> C   6.90888672992635 -1.78807111859344 0.2021213587349
| 19> C   5.78621698744859 -1.03108627707062 0.52972984721238
| 20> C   4.54554127910036 -1.63982800124193 0.63517238108053
| 21> N   4.36895971126431 -2.9468959600236 0.43134746936649
| 22> H   5.27213672104551 -4.73800080131276 -0.04164447217421
| 23> H   5.8809910092331 0.0340315477035 0.70094273031803
| 24> H   3.66384037739018 -1.06306390283889 0.88814258720182
| 25> C   7.88005648139219 -4.0653439558188 -0.35557787758673
| 26> H   8.62997809869392 -4.06869479362573 0.43979373877141
| 27> H   8.38248327928769 -3.72905941342436 -1.26581982379366
| 28> H   7.5415260067416 -5.0897371744623 -0.50857975247136
| 29> C   8.26042927438784 -1.15236287879533 0.07636025783694
| 30> H   8.21463728781612 -0.08611765279031 0.29319489752159
| 31> H   8.6586287122826 -1.28523590151611 -0.93304756449485
| 32> H   8.97551966810432 -1.6176345563567 0.75906646732157
| 33> H   2.7532046981809 -3.70966762087346 0.60410511653524
| 34> O   1.86015152846505 -4.12243632954618 0.73771407238117
| 35> H   1.49675115945416 -4.22402903713092 -0.15030052997021
| 36> *
| 37>
| 38>                          ****END OF INPUT****

CARTESIAN COORDINATES (ANGSTROEM)
---------------------------------
  C      0.679349   -0.350344   -0.224639
  H      0.247823    0.643294   -0.272091
  N     -0.930725   -1.321215    1.428793
  O     -1.801727   -1.035320    0.626408
  O     -1.141929   -1.812338    2.526835
  H      1.790427   -1.836146   -1.223651
  C      0.521070   -1.085451    1.060039
  H      0.965114   -2.083547    1.036033
  H      0.923858   -0.538834    1.913717
  C      1.350909   -0.846126   -1.256621
  H      1.484165   -0.272006   -2.165208
  C      5.443259   -3.677891    0.118579
  C      6.730670   -3.165722   -0.008096
  C      6.908887   -1.788071    0.202121
  C      5.786217   -1.031086    0.529730
  C      4.545541   -1.639828    0.635172
  N      4.368960   -2.946896    0.431347
  H      5.272137   -4.738001   -0.041644
  H      5.880991    0.034032    0.700943
  H      3.663840   -1.063064    0.888143
  C      7.880056   -4.065344   -0.355578
  H      8.629978   -4.068695    0.439794
  H      8.382483   -3.729059   -1.265820
  H      7.541526   -5.089737   -0.508580
  C      8.260429   -1.152363    0.076360
  H      8.214637   -0.086118    0.293195
  H      8.658629   -1.285236   -0.933048
  H      8.975520   -1.617635    0.759066
  H      2.753205   -3.709668    0.604105
  O      1.860152   -4.122436    0.737714
  H      1.496751   -4.224029   -0.150301

 Total Charge           Charge          ....    0
 Multiplicity           Mult            ....    1
 Number of Electrons    NEL             ....  114
 Basis Dimension        Dim             ....  561

ORBITAL ENERGIES
----------------

  NO   OCC          E(Eh)            E(eV)
   0   2.0000     -19.171951      -521.6953
   1   2.0000     -19.168254      -521.5947
   2   2.0000     -19.102644      -519.8094
   3   2.0000     -14.555005      -396.0618
   4   2.0000     -14.322098      -389.7241
   5   2.0000     -10.224272      -278.2166
   6   2.0000     -10.205841      -277.7150
   7   2.0000     -10.205069      -277.6940
   8   2.0000     -10.197317      -277.4831
   9   2.0000     -10.187641      -277.2198
  10   2.0000     -10.184234      -277.1271
  11   2.0000     -10.176767      -276.9239
  12   2.0000     -10.173208      -276.8271
  13   2.0000     -10.165091      -276.6062
  14   2.0000     -10.164071      -276.5784
  15   2.0000      -1.241479       -33.7824
  16   2.0000      -1.068284       -29.0695
  17   2.0000      -0.985065       -26.8050
  18   2.0000      -0.950089       -25.8532
  19   2.0000      -0.834978       -22.7209
  20   2.0000      -0.830160       -22.5898
  21   2.0000      -0.778971       -21.1969
  22   2.0000      -0.753559       -20.5054
  23   2.0000      -0.717347       -19.5200
  24   2.0000      -0.693551       -18.8725
  25   2.0000      -0.630142       -17.1470
  26   2.0000      -0.619657       -16.8617
  27   2.0000      -0.595524       -16.2050
  28   2.0000      -0.575726       -15.6663
  29   2.0000      -0.554210       -15.0808
  30   2.0000      -0.542622       -14.7655
  31   2.0000      -0.527415       -14.3517
  32   2.0000      -0.518579       -14.1112
  33   2.0000      -0.504599       -13.7308
  34   2.0000      -0.493999       -13.4424
  35   2.0000      -0.471108       -12.8195
  36   2.0000      -0.453960       -12.3529
  37   2.0000      -0.442044       -12.0286
  38   2.0000      -0.440477       -11.9860
  39   2.0000      -0.419672       -11.4198
  40   2.0000      -0.403785       -10.9876
  41   2.0000      -0.400920       -10.9096
  42   2.0000      -0.398636       -10.8474
  43   2.0000      -0.394047       -10.7226
  44   2.0000      -0.390995       -10.6395
  45   2.0000      -0.385902       -10.5009
  46   2.0000      -0.370513       -10.0822
  47   2.0000      -0.367330        -9.9956
  48   2.0000      -0.351570        -9.5667
  49   2.0000      -0.330908        -9.0045
  50   2.0000      -0.323373        -8.7994
  51   2.0000      -0.311811        -8.4848
  52   2.0000      -0.297604        -8.0982
  53   2.0000      -0.279913        -7.6168
  54   2.0000      -0.279180        -7.5969
  55   2.0000      -0.274194        -7.4612
  56   2.0000      -0.259265        -7.0550
  57   0.0000      -0.078137        -2.1262
  58   0.0000      -0.034105        -0.9280
  59   0.0000      -0.018756        -0.5104
  60   0.0000      -0.010459        -0.2846
  61   0.0000       0.040034         1.0894

MULLIKEN ATOMIC CHARGES
-----------------------
   0 C :   -0.139661
   1 H :    0.145275
   2 N :    0.439451
   3 O :   -0.342485
   4 O :   -0.356647
   5 H :    0.141472
   6 C :   -0.118533
   7 H :    0.157208
   8 H :    0.169291
   9 C :   -0.291747
  10 H :    0.148321
  11 C :   -0.062218
  12 C :    0.091245
  13 C :    0.031084
  14 C :   -0.155944
  15 C :   -0.018158
  16 N :   -0.342472
  17 H :    0.141835
  18 H :    0.143897
  19 H :    0.171052
  20 C :   -0.370342
  21 H :    0.139362
  22 H :    0.137429
  23 H :    0.132955
  24 C :   -0.379427
  25 H :    0.135806
  26 H :    0.142754
  27 H :    0.141021
  28 H :    0.340187
  29 O :   -0.719348
  30 H :    0.347334
Sum of atomic charges:    0.0000000

LOEWDIN ATOMIC CHARGES
----------------------
   0 C :   -0.211273
   1 H :    0.147461
   2 N :   -0.047271
   3 O :   -0.044337
   4 O :   -0.062607
   5 H :    0.127011
   6 C :   -0.211926
   7 H :    0.153425
   8 H :    0.159022
   9 C :   -0.180797
  10 H :    0.130061
  11 C :   -0.181010
  12 C :   -0.144288
  13 C :   -0.118969
  14 C :   -0.118692
  15 C :   -0.208225
  16 N :    0.103526
  17 H :    0.145216
  18 H :    0.155840
  19 H :    0.143763
  20 C :   -0.243962
  21 H :    0.134896
  22 H :    0.134422
  23 H :    0.131864
  24 C :   -0.238024
  25 H :    0.131819
  26 H :    0.138026
  27 H :    0.137463
  28 H :    0.133202
  29 O :   -0.354218
  30 H :    0.158582

  Mayer bond orders larger than 0.100000
B(  0-C ,  1-H ) :   0.9483 B(  0-C ,  6-C ) :   0.9726 B(  0-C ,  9-C ) :   1.8861
B(  2-N ,  3-O ) :   1.6240 B(  2-N ,  4-O ) :   1.5986 B(  2-N ,  6-C ) :   0.8568
B(  3-O ,  4-O ) :   0.2143 B(  5-H ,  9-C ) :   0.9593 B(  6-C ,  7-H ) :   0.9231
B(  6-C ,  8-H ) :   0.9441 B(  9-C , 10-H ) :   0.9627 B( 11-C , 12-C ) :   1.4393
B( 11-C , 16-N ) :   1.4008 B( 11-C , 17-H ) :   0.9540 B( 12-C , 13-C ) :   1.3181
B( 12-C , 20-C ) :   0.9341 B( 13-C , 14-C ) :   1.4074 B( 13-C , 24-C ) :   0.9427
B( 14-C , 15-C ) :   1.4264 B( 14-C , 18-H ) :   0.9631 B( 15-C , 16-N ) :   1.3813
B( 15-C , 19-H ) :   0.9463 B( 16-N , 28-H ) :   0.1650 B( 20-C , 21-H ) :   0.9644
B( 20-C , 22-H ) :   0.9649 B( 20-C , 23-H ) :   0.9778 B( 24-C , 25-H ) :   0.9808
B( 24-C , 26-H ) :   0.9611 B( 24-C , 27-H ) :   0.9619 B( 28-H , 29-O ) :   0.7892
B( 29-O , 30-H ) :   0.8877

Dispersion correction           -0.050374479
FINAL SINGLE POINT ENERGY      -725.717758340996
Dispersion correction            ... done

DIPOLE MOMENT
-------------
                                X             Y             Z
Electronic contribution:    -17.43450       2.23053       5.20669
Nuclear contribution   :     21.69395      -1.11120      -6.79834
                        -----------------------------------------
Total Dipole Moment    :      4.25944       1.11932      -1.59165
                        -----------------------------------------
Magnitude (a.u.)       :      4.68285
Magnitude (Debye)      :     11.90286

VIBRATIONAL FREQUENCIES
-----------------------

Scaling factor for frequencies =  1.000000000 (already applied!)

   0:         0.00 cm**-1
   1:         0.00 cm**-1
   2:         0.00 cm**-1
   3:         0.00 cm**-1
   4:         0.00 cm**-1
   5:         0.00 cm**-1
   6:       -27.84 cm**-1 ***imaginary mode***
   7:         8.00 cm**-1
   8:        14.87 cm**-1
   9:        26.14 cm**-1
  10:        34.16 cm**-1
  11:        37.47 cm**-1
  12:        49.09 cm**-1
  13:        73.61 cm**-1
  14:       104.32 cm**-1
  15:       113.54 cm**-1
  16:       139.65 cm**-1
  17:       172.69 cm**-1
  18:       176.94 cm**-1
  19:       181.73 cm**-1
  20:       225.98 cm**-1
  21:       253.76 cm**-1
  22:       258.71 cm**-1
  23:       298.73 cm**-1
  24:       401.97 cm**-1
  25:       409.51 cm**-1
  26:       436.23 cm**-1
  27:       458.47 cm**-1
  28:       489.21 cm**-1
  29:       522.56 cm**-1
  30:       551.52 cm**-1
  31:       580.93 cm**-1
  32:       608.29 cm**-1
  33:       614.69 cm**-1
  34:       741.78 cm**-1
  35:       752.31 cm**-1
  36:       768.70 cm**-1
  37:       835.69 cm**-1
  38:       846.18 cm**-1
  39:       868.59 cm**-1
  40:       901.26 cm**-1
  41:       944.88 cm**-1
  42:       945.45 cm**-1
  43:       984.11 cm**-1
  44:       990.08 cm**-1
  45:       995.29 cm**-1
  46:      1007.32 cm**-1
  47:      1029.52 cm**-1
  48:      1033.33 cm**-1
  49:      1045.78 cm**-1
  50:      1076.96 cm**-1
  51:      1100.99 cm**-1
  52:      1167.61 cm**-1
  53:      1199.51 cm**-1
  54:      1221.82 cm**-1
  55:      1264.16 cm**-1
  56:      1282.57 cm**-1
  57:      1291.48 cm**-1
  58:      1323.09 cm**-1
  59:      1339.26 cm**-1
  60:      1352.02 cm**-1
  61:      1401.34 cm**-1
  62:      1402.68 cm**-1
  63:      1410.46 cm**-1
  64:      1442.48 cm**-1
  65:      1451.60 cm**-1
  66:      1463.91 cm**-1
  67:      1465.54 cm**-1
  68:      1474.00 cm**-1
  69:      1476.27 cm**-1
  70:      1483.78 cm**-1
  71:      1527.86 cm**-1
  72:      1564.61 cm**-1
  73:      1599.04 cm**-1
  74:      1623.02 cm**-1
  75:      1639.67 cm**-1
  76:      1705.33 cm**-1
  77:      3026.20 cm**-1
  78:      3029.34 cm**-1
  79:      3044.95 cm**-1
  80:      3070.57 cm**-1
  81:      3074.59 cm**-1
  82:      3106.91 cm**-1
  83:      3109.90 cm**-1
  84:      3116.88 cm**-1
  85:      3138.62 cm**-1
  86:      3145.96 cm**-1
  87:      3164.97 cm**-1
  88:      3169.69 cm**-1
  89:      3184.17 cm**-1
  90:      3210.64 cm**-1
  91:      3225.77 cm**-1
  92:      3808.76 cm**-1

IR SPECTRUM
-----------

 Mode   freq       eps      Int      T**2         TX        TY        TZ
       cm**-1   L/(mol*cm) km/mol    a.u.
----------------------------------------------------------------------------
  7:      8.00   0.000273    1.38  0.010661  (-0.011464  0.096410  0.035139)
  8:     14.87   0.000122    0.62  0.002558  (-0.019121 -0.046607 -0.004442)
  9:     26.14   0.000739    3.73  0.008818  ( 0.026796 -0.078146  0.044644)
 10:     34.16   0.000266    1.35  0.002432  ( 0.015220  0.046451  0.006502)
 11:     37.47   0.000114    0.57  0.000946  ( 0.011446 -0.026356  0.010984)
 12:     49.09   0.000201    1.02  0.001279  ( 0.029866  0.002351 -0.019537)
 13:     73.61   0.000308    1.56  0.001307  (-0.020341 -0.002307 -0.029792)
 14:    104.32   0.009415   47.58  0.028164  ( 0.068633 -0.152628 -0.012574)
 15:    113.54   0.006428   32.48  0.017667  ( 0.056353 -0.117453 -0.026380)
 16:    139.65   0.000019    0.10  0.000043  ( 0.002320  0.001168  0.005979)
 17:    172.69   0.000234    1.18  0.000423  (-0.004367  0.001399 -0.020042)
 18:    176.94   0.002369   11.97  0.004178  ( 0.060802  0.021765 -0.002640)
 19:    181.73   0.000073    0.37  0.000125  ( 0.009359 -0.004035  0.004599)
 20:    225.98   0.026908  135.98  0.037158  (-0.089576  0.170071  0.014499)
 21:    253.76   0.004770   24.10  0.005866  ( 0.015546 -0.067538  0.032596)
 22:    258.71   0.000792    4.00  0.000955  ( 0.013154  0.021079  0.018373)
 23:    298.73   0.000097    0.49  0.000102  ( 0.009652 -0.000728 -0.002852)
 24:    401.97   0.000725    3.67  0.000563  ( 0.022611  0.006053 -0.003904)
 25:    409.51   0.000144    0.73  0.000109  ( 0.001080  0.009916  0.003152)
 26:    436.23   0.001750    8.84  0.001252  (-0.013660 -0.014929  0.029025)
 27:    458.47   0.022249  112.44  0.015144  (-0.100913 -0.056360 -0.042241)
 28:    489.21   0.002045   10.34  0.001305  (-0.026104 -0.019862  0.015126)
 29:    522.56   0.002396   12.11  0.001431  ( 0.032562  0.019046 -0.002844)
 30:    551.52   0.003655   18.47  0.002068  (-0.022983 -0.004676 -0.038963)
 31:    580.93   0.001399    7.07  0.000751  (-0.006749  0.006708  0.025709)
 32:    608.29   0.003317   16.76  0.001701  ( 0.017245 -0.025112 -0.027811)
 33:    614.69   0.001384    6.99  0.000702  ( 0.024614  0.008712 -0.004552)
 34:    741.78   0.012759   64.48  0.005368  (-0.070352 -0.016053 -0.012671)
 35:    752.31   0.002572   13.00  0.001067  (-0.006991  0.001751 -0.031856)
 36:    768.70   0.000653    3.30  0.000265  ( 0.013006 -0.009579 -0.002027)
 37:    835.69   0.024679  124.72  0.009216  (-0.020833  0.093413 -0.007446)
 38:    846.18   0.007160   36.18  0.002641  (-0.005924 -0.008567 -0.050320)
 39:    868.59   0.006257   31.62  0.002248  ( 0.046990 -0.004696 -0.004209)
 40:    901.26   0.003813   19.27  0.001320  ( 0.031091 -0.001723 -0.018723)
 41:    944.88   0.000922    4.66  0.000305  ( 0.013261 -0.005660 -0.009834)
 42:    945.45   0.000216    1.09  0.000071  (-0.001665 -0.000410  0.008273)
 43:    984.11   0.011736   59.31  0.003722  (-0.053421 -0.008221 -0.028288)
 44:    990.08   0.005728   28.95  0.001806  (-0.029171 -0.030895 -0.000294)
 45:    995.29   0.000226    1.14  0.000071  ( 0.004105  0.006229 -0.003891)
 46:   1007.32   0.001226    6.19  0.000380  ( 0.019222 -0.000349 -0.003176)
 47:   1029.52   0.001307    6.61  0.000396  (-0.015308 -0.012571  0.001975)
 48:   1033.33   0.004516   22.82  0.001364  ( 0.033546  0.009475  0.012200)
 49:   1045.78   0.002968   15.00  0.000886  (-0.005051  0.005986 -0.028711)
 50:   1076.96   0.000020    0.10  0.000006  ( 0.002352  0.000233  0.000305)
 51:   1100.99   0.008501   42.96  0.002409  ( 0.045340  0.018012 -0.005408)
 52:   1167.61   0.000194    0.98  0.000052  (-0.004624  0.002284 -0.005034)
 53:   1199.51   0.001036    5.24  0.000270  ( 0.013417  0.009460 -0.000139)
 54:   1221.82   0.006944   35.09  0.001774  ( 0.041236  0.007478 -0.004154)
 55:   1264.16   0.001399    7.07  0.000345  (-0.015972  0.008278  0.004652)
 56:   1282.57   0.003722   18.81  0.000906  (-0.000630  0.000844 -0.030074)
 57:   1291.48   0.000250    1.26  0.000060  ( 0.002080 -0.006919 -0.002871)
 58:   1323.09   0.000758    3.83  0.000179  (-0.004100 -0.003739  0.012169)
 59:   1339.26   0.000528    2.67  0.000123  (-0.006416  0.008922  0.001480)
 60:   1352.02   0.011829   59.78  0.002730  ( 0.024631 -0.016881  0.042880)
 61:   1401.34   0.000323    1.63  0.000072  (-0.008064  0.001699  0.001982)
 62:   1402.68   0.032688  165.19  0.007272  ( 0.079612  0.012636 -0.027831)
 63:   1410.46   0.001218    6.16  0.000270  ( 0.014808 -0.006144 -0.003543)
 64:   1442.48   0.004065   20.54  0.000879  ( 0.014922 -0.024697 -0.006844)
 65:   1451.60   0.017536   88.62  0.003770  ( 0.022030  0.014235 -0.055515)
 66:   1463.91   0.000278    1.40  0.000059  ( 0.003438 -0.003152  0.006124)
 67:   1465.54   0.002548   12.88  0.000543  ( 0.017586 -0.015275  0.000095)
 68:   1474.00   0.005011   25.33  0.001061  ( 0.002705 -0.005408 -0.032006)
 69:   1476.27   0.005182   26.19  0.001095  ( 0.017269 -0.027191  0.007601)
 70:   1483.78   0.006500   32.85  0.001367  ( 0.006075 -0.035543 -0.008172)
 71:   1527.86   0.003859   19.50  0.000788  ( 0.027457 -0.002091 -0.005473)
 72:   1564.61   0.122562  619.38  0.024445  ( 0.048630 -0.057032  0.137214)
 73:   1599.04   0.003553   17.96  0.000693  ( 0.014475  0.021988 -0.000614)
 74:   1623.02   0.015455   78.10  0.002972  (-0.016282 -0.011072  0.050831)
 75:   1639.67   0.021661  109.47  0.004123  ( 0.055841  0.030541 -0.008460)
 76:   1705.33   0.000328    1.66  0.000060  ( 0.003847 -0.005903 -0.003233)
 77:   3026.20   0.004706   23.78  0.000485  (-0.019263  0.009951  0.003902)
 78:   3029.34   0.002358   11.92  0.000243  ( 0.014449  0.005358 -0.002331)
 79:   3044.95   0.023348  117.99  0.002393  ( 0.040390 -0.024960 -0.011766)
 80:   3070.57   0.004803   24.27  0.000488  ( 0.003340 -0.002664  0.021676)
 81:   3074.59   0.000649    3.28  0.000066  (-0.002625  0.001129 -0.007597)
 82:   3106.91   0.007785   39.34  0.000782  (-0.023141  0.015697 -0.000128)
 83:   3109.90   0.004447   22.47  0.000446  (-0.006568 -0.019959 -0.002180)
 84:   3116.88   0.004055   20.49  0.000406  (-0.000196 -0.019862 -0.003380)
 85:   3138.62   0.001079    5.45  0.000107  ( 0.003126 -0.004491 -0.008794)
 86:   3145.96   0.007402   37.41  0.000734  (-0.022448  0.014149  0.005489)
 87:   3164.97   0.000526    2.66  0.000052  (-0.001544 -0.006936  0.001178)
 88:   3169.69   0.003587   18.13  0.000353  (-0.012941 -0.013529 -0.001630)
 89:   3184.17   0.021176  107.01  0.002075  ( 0.030716  0.033550  0.002495)
 90:   3210.64   0.403631  2039.78  0.039231  (-0.183121 -0.074392  0.012802)
 91:   3225.77   0.001433    7.24  0.000139  ( 0.003711 -0.009387  0.006059)
 92:   3808.76   0.015538   78.52  0.001273  ( 0.024581  0.011976  0.022921)

--------------------------
THERMOCHEMISTRY AT 298.15K
--------------------------

Temperature         ... 298.15 K
Pressure            ... 1.00 atm
Total Mass          ... 212.25 AMU

Throughout the following assumptions are being made:
  (1) The electronic state is orbitally nondegenerate
  (2) There are no thermally accessible electronically excited states
  (3) Hindered rotations indicated by low frequency modes are not
      treated as such but are treated as vibrations and this may
      cause some error
  (4) All equations used are the standard statistical mechanics
      equations for an ideal gas
  (5) All vibrations are strictly harmonic

freq.       8.00  E(vib)   ...       0.58
freq.      14.87  E(vib)   ...       0.57
freq.      26.14  E(vib)   ...       0.56
freq.      34.16  E(vib)   ...       0.55
freq.      37.47  E(vib)   ...       0.54
freq.      49.09  E(vib)   ...       0.53
freq.      73.61  E(vib)   ...       0.49
freq.     104.32  E(vib)   ...       0.46
freq.     113.54  E(vib)   ...       0.44
freq.     139.65  E(vib)   ...       0.42
freq.     172.69  E(vib)   ...       0.38
freq.     176.94  E(vib)   ...       0.38
freq.     181.73  E(vib)   ...       0.37
freq.     225.98  E(vib)   ...       0.33
freq.     253.76  E(vib)   ...       0.30
freq.     258.71  E(vib)   ...       0.30
freq.     298.73  E(vib)   ...       0.26
freq.     401.97  E(vib)   ...       0.19
freq.     409.51  E(vib)   ...       0.19
freq.     436.23  E(vib)   ...       0.17
freq.     458.47  E(vib)   ...       0.16
freq.     489.21  E(vib)   ...       0.15
freq.     522.56  E(vib)   ...       0.13
freq.     551.52  E(vib)   ...       0.12
freq.     580.93  E(vib)   ...       0.11
freq.     608.29  E(vib)   ...       0.10
freq.     614.69  E(vib)   ...       0.10
freq.     741.78  E(vib)   ...       0.06
freq.     752.31  E(vib)   ...       0.06
freq.     768.70  E(vib)   ...       0.06
freq.     835.69  E(vib)   ...       0.04
freq.     846.18  E(vib)   ...       0.04
freq.     868.59  E(vib)   ...       0.04
freq.     901.26  E(vib)   ...       0.03
freq.     944.88  E(vib)   ...       0.03
freq.     945.45  E(vib)   ...       0.03
freq.     984.11  E(vib)   ...       0.02
freq.     990.08  E(vib)   ...       0.02
freq.     995.29  E(vib)   ...       0.02
freq.    1007.32  E(vib)   ...       0.02
freq.    1029.52  E(vib)   ...       0.02
freq.    1033.33  E(vib)   ...       0.02
freq.    1045.78  E(vib)   ...       0.02
freq.    1076.96  E(vib)   ...       0.02
freq.    1100.99  E(vib)   ...       0.02
freq.    1167.61  E(vib)   ...       0.01
freq.    1199.51  E(vib)   ...       0.01
freq.    1221.82  E(vib)   ...       0.01
freq.    1264.16  E(vib)   ...       0.01
freq.    1282.57  E(vib)   ...       0.01
freq.    1291.48  E(vib)   ...       0.01
freq.    1323.09  E(vib)   ...       0.01
freq.    1339.26  E(vib)   ...       0.01
freq.    1352.02  E(vib)   ...       0.01
freq.    1401.34  E(vib)   ...       0.00
freq.    1402.68  E(vib)   ...       0.00
freq.    1410.46  E(vib)   ...       0.00
freq.    1442.48  E(vib)   ...       0.00
freq.    1451.60  E(vib)   ...       0.00
freq.    1463.91  E(vib)   ...       0.00
freq.    1465.54  E(vib)   ...       0.00
freq.    1474.00  E(vib)   ...       0.00
freq.    1476.27  E(vib)   ...       0.00
freq.    1483.78  E(vib)   ...       0.00
freq.    1527.86  E(vib)   ...       0.00
freq.    1564.61  E(vib)   ...       0.00
freq.    1599.04  E(vib)   ...       0.00
freq.    1623.02  E(vib)   ...       0.00
freq.    1639.67  E(vib)   ...       0.00
freq.    1705.33  E(vib)   ...       0.00
freq.    3026.20  E(vib)   ...       0.00
freq.    3029.34  E(vib)   ...       0.00
freq.    3044.95  E(vib)   ...       0.00
freq.    3070.57  E(vib)   ...       0.00
freq.    3074.59  E(vib)   ...       0.00
freq.    3106.91  E(vib)   ...       0.00
freq.    3109.90  E(vib)   ...       0.00
freq.    3116.88  E(vib)   ...       0.00
freq.    3138.62  E(vib)   ...       0.00
freq.    3145.96  E(vib)   ...       0.00
freq.    3164.97  E(vib)   ...       0.00
freq.    3169.69  E(vib)   ...       0.00
freq.    3184.17  E(vib)   ...       0.00
freq.    3210.64  E(vib)   ...       0.00
freq.    3225.77  E(vib)   ...       0.00
freq.    3808.76  E(vib)   ...       0.00

------------
INNER ENERGY
------------

The inner energy is: U= E(el) + E(ZPE) + E(vib) + E(rot) + E(trans)
    E(el)   - is the total energy from the electronic structure calculation
              = E(kin-el) + E(nuc-el) + E(el-el) + E(nuc-nuc)
    E(ZPE)  - the the zero temperature vibrational energy from the frequency calculation
    E(vib)  - the the finite temperature correction to E(ZPE) due to population
              of excited vibrational states
    E(rot)  - is the rotational thermal energy
    E(trans)- is the translational thermal energy

Summary of contributions to the inner energy U:
Electronic energy                ...   -725.71775834 Eh
Zero point energy                ...      0.25130917 Eh     157.70 kcal/mol
Thermal vibrational correction   ...      0.01522634 Eh       9.55 kcal/mol
Thermal rotational correction    ...      0.00141627 Eh       0.89 kcal/mol
Thermal translational correction ...      0.00141627 Eh       0.89 kcal/mol
-----------------------------------------------------------------------
Total thermal energy                   -725.44839028 Eh

Summary of corrections to the electronic energy:
(perhaps to be used in another calculation)
Total thermal correction                  0.01805888 Eh      11.33 kcal/mol
Non-thermal (ZPE) correction              0.25130917 Eh     157.70 kcal/mol
-----------------------------------------------------------------------
Total correction                          0.26936806 Eh     169.03 kcal/mol

--------
ENTHALPY
--------

The enthalpy is H = U + kB*T
                kB is Boltzmann's constant
Total free energy                 ...   -725.44839028 Eh
Thermal Enthalpy correction       ...      0.00094421 Eh       0.59 kcal/mol
-----------------------------------------------------------------------
Total Enthalpy                    ...   -725.44744607 Eh

Note: Only C1 symmetry has been detected, increase convergence thresholds
      if your molecule has a higher symmetry. Symmetry factor of 1.0 is
      used for the rotational entropy correction.

Note: Rotational entropy computed according to Herzberg
Infrared and Raman Spectra, Chapter V,1, Van Nostrand Reinhold, 1945
Point Group:  C1, Symmetry Number:   1
Rotational constants in cm-1:     0.040812     0.006348     0.005954

Vibrational entropy computed according to the QRRHO of S. Grimme
Chem.Eur.J. 2012 18 9955

                             ****ORCA TERMINATED NORMALLY****
TOTAL RUN TIME: 0 days 0 hours 31 minutes 13 seconds 78 msec
