                         Program Version 5.0.4 -  RELEASE  -
|  1> ! NEB-TS b3lyp D3 def2-TZVP CPCM
|  2>
|  3> %pal
|  4> nprocs 102
|  5> end
|  6>
|  7> %cpcm
|  8> epsilon 78.4
|  9> end
| 10>
| 11> %neb
| 12> NEB_End_XYZFile "end.xyz"
| 13> Nimages 6
| 14> end
| 15>
| 16>
| 17> *XYZfile 0 1 start.xyz
| 18>
| 19>                          ****END OF INPUT****
 Total Charge           Charge          ....    0
 Multiplicity           Mult            ....    1
 Number of Electrons    NEL             ....  154
Dispersion correction           -0.080218720
FINAL SINGLE POINT ENERGY     -1303.191807467970
Dispersion correction            ... done
Dispersion correction           -0.080504731
FINAL SINGLE POINT ENERGY     -1303.191945691937
Dispersion correction            ... done
Dispersion correction           -0.080731465
FINAL SINGLE POINT ENERGY     -1303.192206314161
Dispersion correction            ... done
FINAL SINGLE POINT ENERGY     -1303.192397327787
FINAL SINGLE POINT ENERGY     -1303.192520972460
FINAL SINGLE POINT ENERGY     -1303.192615311439
FINAL SINGLE POINT ENERGY     -1303.192735731183
FINAL SINGLE POINT ENERGY     -1303.192811595588
FINAL SINGLE POINT ENERGY     -1303.192894350080
FINAL SINGLE POINT ENERGY     -1303.192940549922
FINAL SINGLE POINT ENERGY     -1303.193177978987
FINAL SINGLE POINT ENERGY     -1303.193178822236
FINAL SINGLE POINT ENERGY     -1303.193179630444
FINAL SINGLE POINT ENERGY     -1303.193180396122
FINAL SINGLE POINT ENERGY     -1303.193181136706
FINAL SINGLE POINT ENERGY     -1303.193181866632
FINAL SINGLE POINT ENERGY     -1303.193182508390
Dispersion correction            ... done
Dispersion correction           -0.082716231
FINAL SINGLE POINT ENERGY     -1303.193183185420
Dispersion correction            ... done

CARTESIAN COORDINATES (ANGSTROEM)
---------------------------------
  C     -2.069461    2.453850    1.034973
  C     -2.077378    1.067635    1.111126
  C     -2.078628    0.281868   -0.045104
  C     -2.089873    0.923993   -1.285375
  C     -2.070195    2.308679   -1.341181
  C     -2.056531    3.095307   -0.198375
  H     -2.059772    3.044148    1.942361
  H     -2.070054    0.587885    2.080867
  H     -2.095131    0.355380   -2.202993
  Cl    -2.062713    3.091275   -2.913748
  H     -2.036866    4.173661   -0.271527
  C     -2.119774   -1.208067    0.111067
  C     -3.447402   -1.757678    0.600550
  H     -3.353614   -2.791836    0.928053
  H     -4.217970   -1.709200   -0.174762
  H     -3.780101   -1.159616    1.448295
  N     -1.562942   -1.952944   -0.977644
  O     -2.013594   -3.080815   -1.233899
  O     -0.561088   -1.512167   -1.571392
  N      1.820922   -0.531407    0.996094
  C      2.488126   -1.521996    0.098190
  C      3.698021   -0.907453   -0.588770
  C      3.319775    0.371096   -1.339802
  C      2.625649    1.360863   -0.402156
  C      1.427774    0.719690    0.279740
  H     -1.220794   -1.485496    1.036628
  H      2.757080   -2.381344    0.710373
  H      1.734499   -1.829412   -0.626780
  H      4.124326   -1.647257   -1.268846
  H      4.461787   -0.681302    0.162307
  H      4.209732    0.826704   -1.777603
  H      2.645229    0.121598   -2.165167
  H      2.279467    2.239410   -0.949845
  H      3.332059    1.711233    0.357333
  H      0.966322    1.379660    1.011435
  H      0.671577    0.426870   -0.446291
  H      2.451899   -0.295764    1.762406
  H     -0.607218   -1.338348    2.745331
  H      0.934158   -1.000199    1.435853
  O     -0.297307   -1.748506    1.928278

Dispersion correction           -0.082721474
FINAL SINGLE POINT ENERGY     -1303.193183795100
Dispersion correction            ... done
                    ***********************HURRAY********************
 Multiplicity           Mult            ....    1
 Number of Electrons    NEL             ....  154
 Basis Dimension        Dim             ....  721

ORBITAL ENERGIES
----------------

  NO   OCC          E(Eh)            E(eV)
   0   2.0000    -101.526330     -2762.6719
   1   2.0000     -19.134713      -520.6820
   2   2.0000     -19.132345      -520.6176
   3   2.0000     -19.074903      -519.0545
   4   2.0000     -14.522014      -395.1641
   5   2.0000     -14.383569      -391.3968
   6   2.0000     -10.234105      -278.4842
   7   2.0000     -10.207805      -277.7685
   8   2.0000     -10.205149      -277.6962
   9   2.0000     -10.195156      -277.4243
  10   2.0000     -10.193448      -277.3778
  11   2.0000     -10.180278      -277.0194
  12   2.0000     -10.180080      -277.0141
  13   2.0000     -10.179246      -276.9914
  14   2.0000     -10.173609      -276.8380
  15   2.0000     -10.168548      -276.7003
  16   2.0000     -10.167816      -276.6803
  17   2.0000     -10.163935      -276.5747
  18   2.0000     -10.159683      -276.4590
  19   2.0000      -9.458494      -257.3787
  20   2.0000      -7.219748      -196.4593
  21   2.0000      -7.211708      -196.2405
  22   2.0000      -7.211410      -196.2324
  23   2.0000      -1.198948       -32.6250
  24   2.0000      -1.021957       -27.8089
  25   2.0000      -0.974467       -26.5166
  26   2.0000      -0.930974       -25.3331
  27   2.0000      -0.893255       -24.3067
  28   2.0000      -0.849180       -23.1074
  29   2.0000      -0.814689       -22.1688
  30   2.0000      -0.800618       -21.7859
  31   2.0000      -0.768878       -20.9222
  32   2.0000      -0.749807       -20.4033
  33   2.0000      -0.733780       -19.9672
  34   2.0000      -0.693054       -18.8590
  35   2.0000      -0.662874       -18.0377
  36   2.0000      -0.637120       -17.3369
  37   2.0000      -0.626958       -17.0604
  38   2.0000      -0.602861       -16.4047
  39   2.0000      -0.591038       -16.0830
  40   2.0000      -0.561665       -15.2837
  41   2.0000      -0.538987       -14.6666
  42   2.0000      -0.531949       -14.4751
  43   2.0000      -0.525877       -14.3098
  44   2.0000      -0.508591       -13.8395
  45   2.0000      -0.501614       -13.6496
  46   2.0000      -0.493595       -13.4314
  47   2.0000      -0.471069       -12.8184
  48   2.0000      -0.466403       -12.6915
  49   2.0000      -0.459516       -12.5041
  50   2.0000      -0.453251       -12.3336
  51   2.0000      -0.441012       -12.0005
  52   2.0000      -0.428392       -11.6571
  53   2.0000      -0.427679       -11.6377
  54   2.0000      -0.423917       -11.5354
  55   2.0000      -0.412989       -11.2380
  56   2.0000      -0.407553       -11.0901
  57   2.0000      -0.398039       -10.8312
  58   2.0000      -0.394046       -10.7225
  59   2.0000      -0.388980       -10.5847
  60   2.0000      -0.386718       -10.5231
  61   2.0000      -0.364851        -9.9281
  62   2.0000      -0.360451        -9.8084
  63   2.0000      -0.359138        -9.7726
  64   2.0000      -0.353124        -9.6090
  65   2.0000      -0.333515        -9.0754
  66   2.0000      -0.330659        -8.9977
  67   2.0000      -0.326679        -8.8894
  68   2.0000      -0.325810        -8.8657
  69   2.0000      -0.317000        -8.6260
  70   2.0000      -0.302989        -8.2448
  71   2.0000      -0.299939        -8.1618
  72   2.0000      -0.280102        -7.6220
  73   2.0000      -0.272672        -7.4198
  74   2.0000      -0.263571        -7.1721
  75   2.0000      -0.249830        -6.7982
  76   2.0000      -0.216399        -5.8885
  77   0.0000      -0.057292        -1.5590
  78   0.0000      -0.019642        -0.5345
  79   0.0000      -0.015472        -0.4210
  80   0.0000       0.024253         0.6599
  81   0.0000       0.030771         0.8373

-------
TIMINGS
-------

Dispersion correction           -0.082726541
FINAL SINGLE POINT ENERGY     -1303.193184412328
                    ***********************HURRAY************************

DIPOLE MOMENT
-------------
                                X             Y             Z
Electronic contribution:    -18.01186      11.89840     -15.04446
Nuclear contribution   :     21.46397      -9.33031      17.87993
                        -----------------------------------------
Total Dipole Moment    :      3.45211       2.56809       2.83548
                        -----------------------------------------
Magnitude (a.u.)       :      5.15287
Magnitude (Debye)      :     13.09756

Rotational constants in cm-1:     0.011562     0.008651     0.006592
Rotational constants in MHz :   346.620898   259.364838   197.635869

                             ****ORCA TERMINATED NORMALLY****
TOTAL RUN TIME: 0 days 12 hours 25 minutes 32 seconds 936 msec
