                         Program Version 5.0.4 -  RELEASE  -
|  1> !  opt B3LYP def2-TZVP CPCM D3
|  2> %pal nprocs 102 end
|  3> %cpcm epsilon 78.4 end
|  4> *xyz 0 1
|  5> C   1.99166212 2.64948521 2.1920705
|  6> C   2.204827 1.28470641 2.00297386
|  7> C   1.14812813 0.44631417 1.64201395
|  8> C   -0.13085538 0.97489115 1.45381703
|  9> C   -0.30963471 2.33617237 1.6477683
| 10> C   0.71955357 3.19188644 2.01650875
| 11> H   2.82438194 3.29733246 2.47984229
| 12> H   3.20989243 0.87426445 2.14041779
| 13> H   -0.96253418 0.32759412 1.15933716
| 14> Cl   -1.8817407 2.98717368 1.4178484
| 15> H   0.55117238 4.26106133 2.16615722
| 16> C   1.40466645 -1.02877953 1.47778345
| 17> C   0.44365582 -1.88397369 2.29332204
| 18> H   0.64349267 -2.95918875 2.17693432
| 19> H   -0.61070777 -1.71504644 2.03479531
| 20> H   0.5567365 -1.65808785 3.36753338
| 21> N   1.25358148 -1.36816984 0.02073952
| 22> O   2.25192188 -1.69567241 -0.60054777
| 23> O   0.15225556 -1.2994123 -0.49873094
| 24> N   5.74974523 -0.00721541 3.22343402
| 25> C   6.24449034 -1.28586284 2.65587255
| 26> C   7.71659634 -1.21005867 2.21341074
| 27> C   7.90279482 -0.0674494 1.207502
| 28> C   7.38916293 1.2533885 1.79402083
| 29> C   5.92524793 1.09317807 2.24468541
| 30> H   2.46990561 -1.28597762 1.77588494
| 31> H   6.10791651 -2.07996576 3.42043072
| 32> H   5.59894006 -1.55633832 1.79113744
| 33> H   8.0306936 -2.17235162 1.76984132
| 34> H   8.37003818 -1.05405723 3.09152543
| 35> H   8.96867423 0.02659596 0.92986225
| 36> H   7.36373305 -0.29853584 0.26861665
| 37> H   7.47091076 2.06608218 1.0495284
| 38> H   8.01949818 1.56153076 2.64829916
| 39> H   5.5558039 2.0330283 2.70805601
| 40> H   5.28093063 0.88675932 1.36150234
| 41> H   6.26235262 0.21214302 4.08485364
| 42> H   2.60878223 -0.13246504 4.33239022
| 43> H   3.94725146 -0.56883844 3.71718987
| 44> O   3.05217194 -0.88962496 3.94839666
| 45> *
| 46>
| 47>                          ****END OF INPUT****
 Total Charge           Charge          ....    0
 Multiplicity           Mult            ....    1
 Number of Electrons    NEL             ....  154
Dispersion correction           -0.076950402
FINAL SINGLE POINT ENERGY     -1303.203753783427
Dispersion correction            ... done
Dispersion correction           -0.076971682
FINAL SINGLE POINT ENERGY     -1303.211008011214
Dispersion correction            ... done
Dispersion correction           -0.076903432
FINAL SINGLE POINT ENERGY     -1303.212427785629
Dispersion correction            ... done
FINAL SINGLE POINT ENERGY     -1303.212506434012
FINAL SINGLE POINT ENERGY     -1303.213538339404
FINAL SINGLE POINT ENERGY     -1303.213862465847
FINAL SINGLE POINT ENERGY     -1303.214264921929
FINAL SINGLE POINT ENERGY     -1303.214563209958
FINAL SINGLE POINT ENERGY     -1303.214757750801
FINAL SINGLE POINT ENERGY     -1303.214829914587
FINAL SINGLE POINT ENERGY     -1303.215594490342
FINAL SINGLE POINT ENERGY     -1303.215630820658
FINAL SINGLE POINT ENERGY     -1303.215663459676
FINAL SINGLE POINT ENERGY     -1303.215692353236
FINAL SINGLE POINT ENERGY     -1303.215717684797
FINAL SINGLE POINT ENERGY     -1303.215737739120
FINAL SINGLE POINT ENERGY     -1303.215751188308
Dispersion correction            ... done
Dispersion correction           -0.075220956
FINAL SINGLE POINT ENERGY     -1303.215758757879
Dispersion correction            ... done
Dispersion correction           -0.075227004
FINAL SINGLE POINT ENERGY     -1303.215762709490
Dispersion correction            ... done
                    ***********************HURRAY********************

CARTESIAN COORDINATES (ANGSTROEM)
---------------------------------
  C      2.008926    2.654366    2.092256
  C      2.103005    1.268034    2.088351
  C      1.017588    0.489365    1.695919
  C     -0.167625    1.105678    1.296577
  C     -0.240693    2.490234    1.302058
  C      0.832406    3.279043    1.697155
  H      2.854632    3.253885    2.402917
  H      3.017628    0.782486    2.394626
  H     -1.021480    0.523187    0.980908
  Cl    -1.728733    3.264736    0.798833
  H      0.747477    4.356815    1.695759
  C      1.150370   -1.017219    1.706651
  C      0.013970   -1.763512    2.376060
  H      0.174667   -2.839854    2.314942
  H     -0.950775   -1.523246    1.934810
  H     -0.000466   -1.473825    3.427214
  N      1.300376   -1.463491    0.245433
  O      2.427349   -1.453110   -0.223196
  O      0.300486   -1.771825   -0.379160
  N      5.904161   -0.300235    3.271570
  C      6.544807   -1.416372    2.555132
  C      7.928406   -1.065492    2.007322
  C      7.868664    0.193645    1.139229
  C      7.204046    1.344335    1.898981
  C      5.842276    0.915803    2.445374
  H      2.104707   -1.284799    2.153344
  H      6.600035   -2.269165    3.234316
  H      5.880711   -1.697728    1.731336
  H      8.323314   -1.910580    1.436846
  H      8.609845   -0.897864    2.848741
  H      8.871074    0.480132    0.812216
  H      7.288299   -0.021577    0.234803
  H      7.080993    2.216349    1.250816
  H      7.843312    1.651864    2.734079
  H      5.390521    1.711767    3.040375
  H      5.166092    0.708498    1.610395
  H      6.448265   -0.098205    4.106830
  H      2.933539   -0.637660    4.486321
  H      4.333992   -0.894153    3.843218
  O      3.489931   -1.343795    4.137669

 Multiplicity           Mult            ....    1
 Number of Electrons    NEL             ....  154
 Basis Dimension        Dim             ....  721

ORBITAL ENERGIES
----------------

  NO   OCC          E(Eh)            E(eV)
   0   2.0000    -101.530502     -2762.7854
   1   2.0000     -19.173033      -521.7247
   2   2.0000     -19.171393      -521.6801
   3   2.0000     -19.098081      -519.6852
   4   2.0000     -14.553573      -396.0229
   5   2.0000     -14.306799      -389.3078
   6   2.0000     -10.241782      -278.6931
   7   2.0000     -10.236632      -278.5529
   8   2.0000     -10.202778      -277.6317
   9   2.0000     -10.191302      -277.3194
  10   2.0000     -10.189427      -277.2684
  11   2.0000     -10.186385      -277.1856
  12   2.0000     -10.184607      -277.1372
  13   2.0000     -10.184592      -277.1368
  14   2.0000     -10.183537      -277.1081
  15   2.0000     -10.170617      -276.7566
  16   2.0000     -10.156241      -276.3654
  17   2.0000     -10.155604      -276.3480
  18   2.0000     -10.155558      -276.3468
  19   2.0000      -9.462642      -257.4916
  20   2.0000      -7.223974      -196.5743
  21   2.0000      -7.215831      -196.3527
  22   2.0000      -7.215496      -196.3436
  23   2.0000      -1.242418       -33.8079
  24   2.0000      -1.069649       -29.1066
  25   2.0000      -0.979247       -26.6467
  26   2.0000      -0.911667       -24.8077
  27   2.0000      -0.901924       -24.5426
  28   2.0000      -0.861710       -23.4483
  29   2.0000      -0.825195       -22.4547
  30   2.0000      -0.778816       -21.1927
  31   2.0000      -0.757748       -20.6194
  32   2.0000      -0.746710       -20.3190
  33   2.0000      -0.741224       -20.1697
  34   2.0000      -0.702493       -19.1158
  35   2.0000      -0.639139       -17.3919
  36   2.0000      -0.632382       -17.2080
  37   2.0000      -0.617385       -16.7999
  38   2.0000      -0.612947       -16.6791
  39   2.0000      -0.589270       -16.0348
  40   2.0000      -0.565866       -15.3980
  41   2.0000      -0.549818       -14.9613
  42   2.0000      -0.546739       -14.8775
  43   2.0000      -0.530464       -14.4346
  44   2.0000      -0.515393       -14.0246
  45   2.0000      -0.506956       -13.7950
  46   2.0000      -0.486999       -13.2519
  47   2.0000      -0.486322       -13.2335
  48   2.0000      -0.462903       -12.5962
  49   2.0000      -0.450299       -12.2533
  50   2.0000      -0.447107       -12.1664
  51   2.0000      -0.446493       -12.1497
  52   2.0000      -0.435772       -11.8580
  53   2.0000      -0.434758       -11.8304
  54   2.0000      -0.416072       -11.3219
  55   2.0000      -0.410339       -11.1659
  56   2.0000      -0.400579       -10.9003
  57   2.0000      -0.399935       -10.8828
  58   2.0000      -0.385376       -10.4866
  59   2.0000      -0.378233       -10.2923
  60   2.0000      -0.376755       -10.2520
  61   2.0000      -0.367242        -9.9932
  62   2.0000      -0.365920        -9.9572
  63   2.0000      -0.362539        -9.8652
  64   2.0000      -0.344484        -9.3739
  65   2.0000      -0.342627        -9.3234
  66   2.0000      -0.341986        -9.3059
  67   2.0000      -0.332666        -9.0523
  68   2.0000      -0.321968        -8.7612
  69   2.0000      -0.318453        -8.6656
  70   2.0000      -0.317887        -8.6501
  71   2.0000      -0.311114        -8.4658
  72   2.0000      -0.310799        -8.4573
  73   2.0000      -0.294096        -8.0028
  74   2.0000      -0.270860        -7.3705
  75   2.0000      -0.256480        -6.9792
  76   2.0000      -0.235316        -6.4033
  77   0.0000      -0.082465        -2.2440
  78   0.0000      -0.031688        -0.8623
  79   0.0000      -0.026039        -0.7085
  80   0.0000       0.020804         0.5661
  81   0.0000       0.030180         0.8212

MULLIKEN ATOMIC CHARGES
-----------------------
   0 C :   -0.185898
   1 C :   -0.183042
   2 C :    0.104981
   3 C :   -0.257124
   4 C :    0.199425
   5 C :   -0.184903
   6 H :    0.147859
   7 H :    0.171685
   8 H :    0.151588
   9 Cl:   -0.133604
  10 H :    0.151766
  11 C :    0.025690
  12 C :   -0.358066
  13 H :    0.144333
  14 H :    0.140620
  15 H :    0.139049
  16 N :    0.435323
  17 O :   -0.352622
  18 O :   -0.342430
  19 N :   -0.392882
  20 C :   -0.123745
  21 C :   -0.174286
  22 C :   -0.161380
  23 C :   -0.174788
  24 C :   -0.146595
  25 H :    0.138797
  26 H :    0.119556
  27 H :    0.103948
  28 H :    0.099509
  29 H :    0.089645
  30 H :    0.101095
  31 H :    0.088857
  32 H :    0.100262
  33 H :    0.091640
  34 H :    0.126686
  35 H :    0.111080
  36 H :    0.218422
  37 H :    0.339981
  38 H :    0.346732
  39 O :   -0.717162
Sum of atomic charges:   -0.0000000

LOEWDIN ATOMIC CHARGES
----------------------
   0 C :   -0.121543
   1 C :   -0.101326
   2 C :   -0.128899
   3 C :   -0.102778
   4 C :   -0.411663
   5 C :   -0.133790
   6 H :    0.155486
   7 H :    0.152863
   8 H :    0.159198
   9 Cl:    0.363769
  10 H :    0.155317
  11 C :   -0.207179
  12 C :   -0.261594
  13 H :    0.132566
  14 H :    0.128959
  15 H :    0.140153
  16 N :   -0.029290
  17 O :   -0.051844
  18 O :   -0.039067
  19 N :    0.000603
  20 C :   -0.298564
  21 C :   -0.266701
  22 C :   -0.262266
  23 C :   -0.265058
  24 C :   -0.304911
  25 H :    0.162847
  26 H :    0.130775
  27 H :    0.132339
  28 H :    0.135182
  29 H :    0.134503
  30 H :    0.132559
  31 H :    0.135372
  32 H :    0.135436
  33 H :    0.134600
  34 H :    0.131451
  35 H :    0.132847
  36 H :    0.176940
  37 H :    0.153922
  38 H :    0.131775
  39 O :   -0.362988

  Mayer bond orders larger than 0.100000
B(  0-C ,  1-C ) :   1.4238 B(  0-C ,  5-C ) :   1.3702 B(  0-C ,  6-H ) :   0.9827
B(  1-C ,  2-C ) :   1.3680 B(  1-C ,  7-H ) :   0.9117 B(  2-C ,  3-C ) :   1.3301
B(  2-C , 11-C ) :   0.8782 B(  3-C ,  4-C ) :   1.3784 B(  3-C ,  8-H ) :   0.9692
B(  4-C ,  5-C ) :   1.3341 B(  4-C ,  9-Cl) :   0.9265 B(  5-C , 10-H ) :   0.9764
B(  7-H , 39-O ) :   0.1004 B( 11-C , 12-C ) :   0.9699 B( 11-C , 16-N ) :   0.8050
B( 11-C , 25-H ) :   0.9522 B( 12-C , 13-H ) :   0.9712 B( 12-C , 14-H ) :   0.9515
B( 12-C , 15-H ) :   0.9641 B( 16-N , 17-O ) :   1.6160 B( 16-N , 18-O ) :   1.6164
B( 17-O , 18-O ) :   0.2106 B( 19-N , 20-C ) :   0.9512 B( 19-N , 24-C ) :   0.9428
B( 19-N , 36-H ) :   0.9120 B( 19-N , 38-H ) :   0.1735 B( 20-C , 21-C ) :   0.9903
B( 20-C , 26-H ) :   0.9673 B( 20-C , 27-H ) :   0.9684 B( 21-C , 22-C ) :   0.9738
B( 21-C , 28-H ) :   0.9637 B( 21-C , 29-H ) :   0.9623 B( 22-C , 23-C ) :   0.9711
B( 22-C , 30-H ) :   0.9692 B( 22-C , 31-H ) :   0.9660 B( 23-C , 24-C ) :   0.9911
B( 23-C , 32-H ) :   0.9652 B( 23-C , 33-H ) :   0.9659 B( 24-C , 34-H ) :   0.9649
B( 24-C , 35-H ) :   0.9715 B( 37-H , 39-O ) :   0.8890 B( 38-H , 39-O ) :   0.7714

Dispersion correction           -0.075225089
FINAL SINGLE POINT ENERGY     -1303.215765374171

DIPOLE MOMENT
-------------
                                X             Y             Z
Electronic contribution:    -39.61321      13.44647     -12.55445
Nuclear contribution   :     41.46439     -11.97791      14.36906
                        -----------------------------------------
Total Dipole Moment    :      1.85118       1.46856       1.81461
                        -----------------------------------------
Magnitude (a.u.)       :      2.97932
Magnitude (Debye)      :      7.57283

Rotational constants in cm-1:     0.014998     0.004987     0.004325
Rotational constants in MHz :   449.622611   149.515858   129.665859

                             ****ORCA TERMINATED NORMALLY****
TOTAL RUN TIME: 0 days 0 hours 54 minutes 4 seconds 414 msec
