                         Program Version 5.0.4 -  RELEASE  -
|  1> !  opt B3LYP def2-TZVP CPCM D3
|  2> %pal nprocs 102 end
|  3> %cpcm epsilon 78.4 end
|  4> *xyz 0 1
|  5> C   -0.08605 -0.46341 0.17799
|  6> H   -0.07163 -0.91773 -0.81574
|  7> N   -0.17269 -2.70545 1.20686
|  8> O   -0.60634 -3.12794 0.14742
|  9> O   -0.16502 -3.39455 2.21888
| 10> H   -0.48249 1.27946 1.35115
| 11> C   0.37671 -1.3404 1.29515
| 12> H   1.50921 -1.41818 1.28183
| 13> H   0.13517 -0.91747 2.30647
| 14> C   -0.45595 0.79918 0.38202
| 15> H   -0.76132 1.46427 -0.41555
| 16> C   6.69408 -3.15063 0.76359
| 17> C   8.08913 -3.20744 0.6795
| 18> C   8.79121 -2.03261 0.41527
| 19> C   8.08581 -0.84334 0.24072
| 20> C   6.68989 -0.86978 0.33821
| 21> N   6.00582 -2.00272 0.59561
| 22> H   6.09365 -4.04736 0.97126
| 23> H   8.61154 -4.15346 0.81692
| 24> H   8.60513 0.09114 0.03156
| 25> H   6.08857 0.03973 0.20631
| 26> H   9.88182 -2.04542 0.34581
| 27> H   3.06721 -3.43066 0.84365
| 28> H   3.99734 -2.27534 0.49713
| 29> O   3.07347 -2.56449 0.42372
| 30> *
| 31>
| 32>                          ****END OF INPUT****
 Total Charge           Charge          ....    0
 Multiplicity           Mult            ....    1
 Number of Electrons    NEL             ....   98
 Basis Dimension        Dim             ....  475

ORBITAL ENERGIES
----------------

  NO   OCC          E(Eh)            E(eV)
   0   2.0000     -19.169950      -521.6409
   1   2.0000     -19.166211      -521.5391
   2   2.0000     -19.112414      -520.0752
   3   2.0000     -14.557157      -396.1204
   4   2.0000     -14.328106      -389.8876
   5   2.0000     -10.228820      -278.3404
   6   2.0000     -10.216180      -277.9964
   7   2.0000     -10.216093      -277.9940
   8   2.0000     -10.195447      -277.4322
   9   2.0000     -10.187328      -277.2113
  10   2.0000     -10.187042      -277.2035
  11   2.0000     -10.186982      -277.2019
  12   2.0000     -10.171352      -276.7766
  13   2.0000      -1.243159       -33.8281
  14   2.0000      -1.063548       -28.9406
  15   2.0000      -0.999179       -27.1890
  16   2.0000      -0.946509       -25.7558
  17   2.0000      -0.840570       -22.8731
  18   2.0000      -0.806595       -21.9486
  19   2.0000      -0.765363       -20.8266
  20   2.0000      -0.756080       -20.5740
  21   2.0000      -0.634239       -17.2585
  22   2.0000      -0.629190       -17.1211
  23   2.0000      -0.628872       -17.1125
  24   2.0000      -0.573115       -15.5953
  25   2.0000      -0.555327       -15.1112
  26   2.0000      -0.548914       -14.9367
  27   2.0000      -0.532116       -14.4796
  28   2.0000      -0.526911       -14.3380
  29   2.0000      -0.514163       -13.9911
  30   2.0000      -0.485681       -13.2161
  31   2.0000      -0.469766       -12.7830
  32   2.0000      -0.458773       -12.4838
  33   2.0000      -0.442064       -12.0292
  34   2.0000      -0.432373       -11.7655
  35   2.0000      -0.411504       -11.1976
  36   2.0000      -0.406955       -11.0738
  37   2.0000      -0.403504       -10.9799
  38   2.0000      -0.377521       -10.2729
  39   2.0000      -0.368481       -10.0269
  40   2.0000      -0.363112        -9.8808
  41   2.0000      -0.330161        -8.9841
  42   2.0000      -0.327265        -8.9053
  43   2.0000      -0.310894        -8.4599
  44   2.0000      -0.306269        -8.3340
  45   2.0000      -0.297112        -8.0848
  46   2.0000      -0.276724        -7.5301
  47   2.0000      -0.271917        -7.3992
  48   2.0000      -0.271622        -7.3912
  49   0.0000      -0.082188        -2.2364
  50   0.0000      -0.041438        -1.1276
  51   0.0000      -0.026548        -0.7224
  52   0.0000      -0.008327        -0.2266
  53   0.0000       0.034647         0.9428

MULLIKEN ATOMIC CHARGES
-----------------------
   0 C :   -0.147064
   1 H :    0.150588
   2 N :    0.443416
   3 O :   -0.351166
   4 O :   -0.362495
   5 H :    0.146302
   6 C :   -0.101613
   7 H :    0.182908
   8 H :    0.173460
   9 C :   -0.309530
  10 H :    0.146030
  11 C :   -0.013471
  12 C :   -0.128459
  13 C :   -0.119410
  14 C :   -0.125544
  15 C :   -0.029288
  16 N :   -0.325171
  17 H :    0.155516
  18 H :    0.155539
  19 H :    0.155415
  20 H :    0.155875
  21 H :    0.161458
  22 H :    0.351219
  23 H :    0.343387
  24 O :   -0.707902
Sum of atomic charges:    0.0000000

LOEWDIN ATOMIC CHARGES
----------------------
   0 C :   -0.209927
   1 H :    0.149558
   2 N :   -0.043825
   3 O :   -0.046549
   4 O :   -0.064590
   5 H :    0.127794
   6 C :   -0.231370
   7 H :    0.173332
   8 H :    0.166686
   9 C :   -0.194659
  10 H :    0.127387
  11 C :   -0.198448
  12 C :   -0.140825
  13 C :   -0.110873
  14 C :   -0.140474
  15 C :   -0.197345
  16 N :    0.087947
  17 H :    0.145829
  18 H :    0.155668
  19 H :    0.155554
  20 H :    0.146382
  21 H :    0.157966
  22 H :    0.167039
  23 H :    0.137219
  24 O :   -0.319474

  Mayer bond orders larger than 0.100000
B(  0-C ,  1-H ) :   0.9425 B(  0-C ,  6-C ) :   0.9674 B(  0-C ,  9-C ) :   1.9039
B(  2-N ,  3-O ) :   1.6107 B(  2-N ,  4-O ) :   1.5869 B(  2-N ,  6-C ) :   0.8973
B(  3-O ,  4-O ) :   0.2077 B(  5-H ,  9-C ) :   0.9612 B(  6-C ,  7-H ) :   0.8886
B(  6-C ,  8-H ) :   0.9352 B(  9-C , 10-H ) :   0.9643 B( 11-C , 12-C ) :   1.4275
B( 11-C , 16-N ) :   1.3871 B( 11-C , 17-H ) :   0.9504 B( 12-C , 13-C ) :   1.4220
B( 12-C , 18-H ) :   0.9578 B( 13-C , 14-C ) :   1.4212 B( 13-C , 21-H ) :   0.9529
B( 14-C , 15-C ) :   1.4178 B( 14-C , 19-H ) :   0.9562 B( 15-C , 16-N ) :   1.4269
B( 15-C , 20-H ) :   0.9565 B( 16-N , 23-H ) :   0.1110 B( 22-H , 24-O ) :   0.8853
B( 23-H , 24-O ) :   0.8295

Dispersion correction           -0.035421001
FINAL SINGLE POINT ENERGY      -647.087758967568
Dispersion correction            ... done
Dispersion correction           -0.035761366
FINAL SINGLE POINT ENERGY      -647.093038438107
Dispersion correction            ... done
Dispersion correction           -0.035895170
FINAL SINGLE POINT ENERGY      -647.093693356263
Dispersion correction            ... done
FINAL SINGLE POINT ENERGY      -647.094762013701
FINAL SINGLE POINT ENERGY      -647.095198975068
FINAL SINGLE POINT ENERGY      -647.095456182397
FINAL SINGLE POINT ENERGY      -647.095648063249
FINAL SINGLE POINT ENERGY      -647.095745255013
FINAL SINGLE POINT ENERGY      -647.095787091931
FINAL SINGLE POINT ENERGY      -647.094682914723
FINAL SINGLE POINT ENERGY      -647.098559072583
FINAL SINGLE POINT ENERGY      -647.098585736719
FINAL SINGLE POINT ENERGY      -647.098612808211
FINAL SINGLE POINT ENERGY      -647.098654443311
FINAL SINGLE POINT ENERGY      -647.098715780163
FINAL SINGLE POINT ENERGY      -647.098796402924
FINAL SINGLE POINT ENERGY      -647.098868027382
Dispersion correction           -0.040930432
FINAL SINGLE POINT ENERGY      -647.098917056590
Dispersion correction            ... done
Dispersion correction           -0.040917186
FINAL SINGLE POINT ENERGY      -647.098981128408
Dispersion correction            ... done

CARTESIAN COORDINATES (ANGSTROEM)
---------------------------------
  C      2.162216   -0.655385    0.736198
  H      2.377617   -0.832152   -0.310066
  N      0.557732   -2.546858    1.084142
  O     -0.117304   -2.033695    0.211266
  O      0.284477   -3.603041    1.631073
  H      2.053109    0.751421    2.300501
  C      1.818550   -1.846564    1.557874
  H      2.581756   -2.621331    1.524966
  H      1.623877   -1.592550    2.599614
  C      2.256988    0.563374    1.252022
  H      2.552112    1.411664    0.647329
  C      5.552819   -2.641965    1.128432
  C      6.517234   -1.745675    1.567784
  C      6.830353   -0.657386    0.762028
  C      6.167829   -0.507310   -0.448715
  C      5.215927   -1.453303   -0.805481
  N      4.910861   -2.500607   -0.034987
  H      5.280808   -3.501184    1.730865
  H      7.008948   -1.901392    2.518467
  H      6.376391    0.325168   -1.107269
  H      4.671391   -1.367386   -1.738892
  H      7.576314    0.062368    1.073251
  H      2.539342   -4.732118   -0.185041
  H      3.498600   -3.560199   -0.542012
  O      2.696323   -4.048495   -0.847610

Dispersion correction           -0.041314458
FINAL SINGLE POINT ENERGY      -647.099066258731
Dispersion correction            ... done

DIPOLE MOMENT
-------------
                                X             Y             Z
Electronic contribution:     -4.99720      -1.52881      -3.74177
Nuclear contribution   :      7.85394       4.70679       1.84539
                        -----------------------------------------
Total Dipole Moment    :      2.85674       3.17798      -1.89637
                        -----------------------------------------
Magnitude (a.u.)       :      4.67512
Magnitude (Debye)      :     11.88321

Rotational constants in cm-1:     0.040336     0.013684     0.012226
Rotational constants in MHz :  1209.240540   410.229830   366.527652

                             ****ORCA TERMINATED NORMALLY****
TOTAL RUN TIME: 0 days 1 hours 8 minutes 11 seconds 390 msec
