                         Program Version 5.0.4 -  RELEASE  -
|  1> !  opt B3LYP def2-TZVP CPCM D3
|  2> %pal nprocs 102 end
|  3> %cpcm epsilon 78.4 end
|  4> *xyz 0 1
|  5> C   0.52489893 -0.80576313 0.50159133
|  6> H   0.35166095 -0.1554615 -0.38020709
|  7> H   0.13560473 -0.2877358 1.40183176
|  8> H   1.62933077 -0.90386401 0.62442116
|  9> N   -0.08766212 -2.11604609 0.32628827
| 10> O   -0.5350751 -2.7007204 1.3024722
| 11> O   -0.13355109 -2.60562132 -0.79310729
| 12> H   3.90958288 -1.55402739 1.13313537
| 13> O   3.45573063 -1.12601158 1.87051362
| 14> H   3.60471583 -0.1850492 1.7231756
| 15> *
| 16>
| 17>                          ****END OF INPUT****
 Total Charge           Charge          ....    0
 Multiplicity           Mult            ....    1
 Number of Electrons    NEL             ....   42
Dispersion correction           -0.007830008
FINAL SINGLE POINT ENERGY      -321.453862715766
Dispersion correction            ... done
Dispersion correction           -0.007820061
FINAL SINGLE POINT ENERGY      -321.456076739315
Dispersion correction            ... done
Dispersion correction           -0.007791478
FINAL SINGLE POINT ENERGY      -321.455784203800
Dispersion correction            ... done
FINAL SINGLE POINT ENERGY      -321.457363299189
FINAL SINGLE POINT ENERGY      -321.457565088964
FINAL SINGLE POINT ENERGY      -321.457630570715
FINAL SINGLE POINT ENERGY      -321.457637686616
FINAL SINGLE POINT ENERGY      -321.457640328843
FINAL SINGLE POINT ENERGY      -321.457640381962
FINAL SINGLE POINT ENERGY      -321.457638890639
FINAL SINGLE POINT ENERGY      -321.457639303512
Dispersion correction            ... done
Dispersion correction           -0.007642621
FINAL SINGLE POINT ENERGY      -321.457642945560
Dispersion correction            ... done
Dispersion correction           -0.007643638
FINAL SINGLE POINT ENERGY      -321.457645030579
Dispersion correction            ... done
                    ***********************HURRAY********************

CARTESIAN COORDINATES (ANGSTROEM)
---------------------------------
  C      0.458353   -0.735614    0.465836
  H      0.242859   -0.183829   -0.442441
  H      0.007657   -0.290189    1.346580
  H      1.532577   -0.856733    0.610004
  N     -0.094365   -2.112269    0.313828
  O     -0.370596   -2.730842    1.330027
  O     -0.212427   -2.562411   -0.815294
  H      3.979160   -1.625122    1.220076
  O      3.556513   -1.134356    1.936105
  H      3.755505   -0.208935    1.745394

 Multiplicity           Mult            ....    1
 Number of Electrons    NEL             ....   42
 Basis Dimension        Dim             ....  185

ORBITAL ENERGIES
----------------

  NO   OCC          E(Eh)            E(eV)
   0   2.0000     -19.170170      -521.6468
   1   2.0000     -19.169865      -521.6385
   2   2.0000     -19.125759      -520.4384
   3   2.0000     -14.558206      -396.1489
   4   2.0000     -10.217399      -278.0296
   5   2.0000      -1.241946       -33.7951
   6   2.0000      -1.067903       -29.0591
   7   2.0000      -1.009326       -27.4651
   8   2.0000      -0.811721       -22.0881
   9   2.0000      -0.623159       -16.9570
  10   2.0000      -0.554559       -15.0903
  11   2.0000      -0.543076       -14.7778
  12   2.0000      -0.533431       -14.5154
  13   2.0000      -0.526553       -14.3282
  14   2.0000      -0.437879       -11.9153
  15   2.0000      -0.420573       -11.4444
  16   2.0000      -0.393636       -10.7114
  17   2.0000      -0.331380        -9.0173
  18   2.0000      -0.324841        -8.8394
  19   2.0000      -0.315911        -8.5964
  20   2.0000      -0.308368        -8.3911
  21   0.0000      -0.080368        -2.1869
  22   0.0000       0.029194         0.7944
  23   0.0000       0.075798         2.0626
  24   0.0000       0.087040         2.3685
  25   0.0000       0.116369         3.1666

MULLIKEN ATOMIC CHARGES
-----------------------
   0 C :   -0.230683
   1 H :    0.164846
   2 H :    0.167001
   3 H :    0.143658
   4 N :    0.422703
   5 O :   -0.349226
   6 O :   -0.350021
   7 H :    0.363492
   8 O :   -0.695651
   9 H :    0.363881
Sum of atomic charges:   -0.0000000

LOEWDIN ATOMIC CHARGES
----------------------
   0 C :   -0.235920
   1 H :    0.132522
   2 H :    0.134834
   3 H :    0.134206
   4 N :   -0.067014
   5 O :   -0.062000
   6 O :   -0.061610
   7 H :    0.174504
   8 O :   -0.323874
   9 H :    0.174351

  Mayer bond orders larger than 0.100000
B(  0-C ,  1-H ) :   0.9501 B(  0-C ,  2-H ) :   0.9497 B(  0-C ,  3-H ) :   0.9198
B(  0-C ,  4-N ) :   0.8769 B(  4-N ,  5-O ) :   1.6156 B(  4-N ,  6-O ) :   1.6166
B(  5-O ,  6-O ) :   0.2087 B(  7-H ,  8-O ) :   0.8775 B(  8-O ,  9-H ) :   0.8771

Dispersion correction           -0.007643655
FINAL SINGLE POINT ENERGY      -321.457645635002

DIPOLE MOMENT
-------------
                                X             Y             Z
Electronic contribution:     -4.04619      -3.60189      -1.51029
Nuclear contribution   :      5.29375       5.58636       1.01933
                        -----------------------------------------
Total Dipole Moment    :      1.24756       1.98447      -0.49096
                        -----------------------------------------
Magnitude (a.u.)       :      2.39491
Magnitude (Debye)      :      6.08737

Rotational constants in cm-1:     0.251997     0.060524     0.057277
Rotational constants in MHz :  7554.685313  1814.454299  1717.136111

                             ****ORCA TERMINATED NORMALLY****
TOTAL RUN TIME: 0 days 0 hours 5 minutes 52 seconds 120 msec
