                         Program Version 5.0.4 -  RELEASE  -
|  1> !  opt B3LYP def2-TZVP CPCM D3
|  2> %pal nprocs 102 end
|  3> %cpcm epsilon 78.4 end
|  4> *xyz 0 1
|  5> C   0.85144 -0.54122 -0.86714
|  6> H   1.0022 -0.78842 -1.92766
|  7> N   0.73359 -2.94168 -0.43716
|  8> O   0.60584 -3.17474 -1.67915
|  9> O   0.66066 -3.9505 0.33538
| 10> H   1.78652 -0.61245 1.67489
| 11> C   0.97413 -1.72559 0.02784
| 12> H   3.06739 -2.07182 -0.77617
| 13> H   -0.15174 -0.09074 -0.78615
| 14> C   1.16751 -1.50033 1.48684
| 15> H   0.20992 -1.34285 2.00401
| 16> C   4.66666 -2.47575 -4.17494
| 17> C   4.9571 -3.01389 -5.42514
| 18> C   5.04596 -4.39805 -5.57433
| 19> C   4.83077 -5.21909 -4.4671
| 20> C   4.54177 -4.6446 -3.23258
| 21> N   4.46985 -3.29222 -3.10594
| 22> H   5.1118 -2.34671 -6.279
| 23> H   5.27592 -4.83598 -6.55202
| 24> H   4.88621 -6.30896 -4.55904
| 25> H   1.57447 0.24398 -0.61214
| 26> H   1.66175 -2.35257 1.97643
| 27> H   4.36267 -5.25396 -2.32769
| 28> H   4.58436 -1.3878 -4.0075
| 29> H   4.24103 -2.7166 -0.06311
| 30> H   4.27265 -2.86165 -2.15238
| 31> O   4.04546 -2.12565 -0.83098
| 32> *
| 33>
| 34>                          ****END OF INPUT****
 Total Charge           Charge          ....    0
 Multiplicity           Mult            ....    1
 Number of Electrons    NEL             ....  100
 Basis Dimension        Dim             ....  487

ORBITAL ENERGIES
----------------

  NO   OCC          E(Eh)            E(eV)
   0   2.0000     -19.156219      -521.2672
   1   2.0000     -19.065035      -518.7860
   2   2.0000     -19.064618      -518.7746
   3   2.0000     -14.458280      -393.4298
   4   2.0000     -14.409203      -392.0943
   5   2.0000     -10.258735      -279.1544
   6   2.0000     -10.258580      -279.1501
   7   2.0000     -10.223861      -278.2054
   8   2.0000     -10.214075      -277.9391
   9   2.0000     -10.214008      -277.9373
  10   2.0000     -10.169118      -276.7158
  11   2.0000     -10.153033      -276.2781
  12   2.0000     -10.152548      -276.2649
  13   2.0000      -1.130927       -30.7741
  14   2.0000      -1.038012       -28.2457
  15   2.0000      -1.009205       -27.4619
  16   2.0000      -0.945518       -25.7288
  17   2.0000      -0.844303       -22.9747
  18   2.0000      -0.811567       -22.0839
  19   2.0000      -0.803119       -21.8540
  20   2.0000      -0.689439       -18.7606
  21   2.0000      -0.680180       -18.5086
  22   2.0000      -0.676591       -18.4110
  23   2.0000      -0.671749       -18.2792
  24   2.0000      -0.597646       -16.2628
  25   2.0000      -0.539885       -14.6910
  26   2.0000      -0.524370       -14.2688
  27   2.0000      -0.517595       -14.0845
  28   2.0000      -0.507458       -13.8086
  29   2.0000      -0.488538       -13.2938
  30   2.0000      -0.472339       -12.8530
  31   2.0000      -0.468981       -12.7616
  32   2.0000      -0.463707       -12.6181
  33   2.0000      -0.456084       -12.4107
  34   2.0000      -0.451554       -12.2874
  35   2.0000      -0.427948       -11.6451
  36   2.0000      -0.401884       -10.9358
  37   2.0000      -0.396568       -10.7912
  38   2.0000      -0.394937       -10.7468
  39   2.0000      -0.387079       -10.5330
  40   2.0000      -0.378198       -10.2913
  41   2.0000      -0.376611       -10.2481
  42   2.0000      -0.341322        -9.2878
  43   2.0000      -0.340551        -9.2669
  44   2.0000      -0.333151        -9.0655
  45   2.0000      -0.300884        -8.1875
  46   2.0000      -0.264233        -7.1902
  47   2.0000      -0.248227        -6.7546
  48   2.0000      -0.217721        -5.9245
  49   2.0000      -0.175848        -4.7851
  50   0.0000      -0.083025        -2.2592
  51   0.0000      -0.050922        -1.3857
  52   0.0000       0.007648         0.2081
  53   0.0000       0.032319         0.8794
  54   0.0000       0.051688         1.4065

MULLIKEN ATOMIC CHARGES
-----------------------
   0 C :   -0.341311
   1 H :    0.114824
   2 N :    0.402533
   3 O :   -0.623145
   4 O :   -0.620457
   5 H :    0.115488
   6 C :   -0.151306
   7 H :    0.378521
   8 H :    0.110883
   9 C :   -0.333357
  10 H :    0.106922
  11 C :    0.008160
  12 C :   -0.110257
  13 C :   -0.084340
  14 C :   -0.111674
  15 C :    0.007458
  16 N :   -0.100403
  17 H :    0.183732
  18 H :    0.184225
  19 H :    0.183801
  20 H :    0.119489
  21 H :    0.108046
  22 H :    0.206045
  23 H :    0.206354
  24 H :    0.382124
  25 H :    0.313180
  26 O :   -0.655535
Sum of atomic charges:   -0.0000000

LOEWDIN ATOMIC CHARGES
----------------------
   0 C :   -0.311838
   1 H :    0.122620
   2 N :   -0.087262
   3 O :   -0.321477
   4 O :   -0.318590
   5 H :    0.126295
   6 C :   -0.368830
   7 H :    0.177088
   8 H :    0.123552
   9 C :   -0.307584
  10 H :    0.120789
  11 C :   -0.100188
  12 C :   -0.104580
  13 C :   -0.061124
  14 C :   -0.104725
  15 C :   -0.101215
  16 N :    0.255700
  17 H :    0.170546
  18 H :    0.170496
  19 H :    0.170622
  20 H :    0.124807
  21 H :    0.121936
  22 H :    0.171645
  23 H :    0.171630
  24 H :    0.204390
  25 H :    0.186641
  26 O :   -0.231344

  Mayer bond orders larger than 0.100000
B(  0-C ,  1-H ) :   0.9710 B(  0-C ,  6-C ) :   0.9836 B(  0-C ,  8-H ) :   0.9530
B(  0-C , 20-H ) :   0.9706 B(  2-N ,  3-O ) :   1.2924 B(  2-N ,  4-O ) :   1.3047
B(  2-N ,  6-C ) :   1.4715 B(  3-O ,  6-C ) :   0.1510 B(  4-O ,  6-C ) :   0.1466
B(  5-H ,  9-C ) :   0.9705 B(  6-C ,  9-C ) :   0.9881 B(  7-H , 26-O ) :   0.8435
B(  9-C , 10-H ) :   0.9595 B(  9-C , 21-H ) :   0.9681 B( 11-C , 12-C ) :   1.4483
B( 11-C , 16-N ) :   1.3109 B( 11-C , 23-H ) :   0.9313 B( 12-C , 13-C ) :   1.4024
B( 12-C , 17-H ) :   0.9455 B( 13-C , 14-C ) :   1.4024 B( 13-C , 18-H ) :   0.9420
B( 14-C , 15-C ) :   1.4504 B( 14-C , 19-H ) :   0.9456 B( 15-C , 16-N ) :   1.3042
B( 15-C , 22-H ) :   0.9300 B( 16-N , 25-H ) :   0.7446 B( 24-H , 26-O ) :   0.8576
B( 25-H , 26-O ) :   0.1916

Dispersion correction           -0.040529020
FINAL SINGLE POINT ENERGY      -648.295342021201
Dispersion correction            ... done
Dispersion correction           -0.040532057
FINAL SINGLE POINT ENERGY      -648.301262217403
Dispersion correction            ... done
Dispersion correction           -0.040652635
FINAL SINGLE POINT ENERGY      -648.302421412500
Dispersion correction            ... done
FINAL SINGLE POINT ENERGY      -648.303154432751
FINAL SINGLE POINT ENERGY      -648.303735436002
FINAL SINGLE POINT ENERGY      -648.302287832438
FINAL SINGLE POINT ENERGY      -648.303789489120
FINAL SINGLE POINT ENERGY      -648.303286761061
FINAL SINGLE POINT ENERGY      -648.304257417560
FINAL SINGLE POINT ENERGY      -648.304338993202
FINAL SINGLE POINT ENERGY      -648.309661454460
FINAL SINGLE POINT ENERGY      -648.309682840093
FINAL SINGLE POINT ENERGY      -648.309699441817
FINAL SINGLE POINT ENERGY      -648.309714675494
FINAL SINGLE POINT ENERGY      -648.309727376658
FINAL SINGLE POINT ENERGY      -648.309754388755
FINAL SINGLE POINT ENERGY      -648.309774521508
Dispersion correction           -0.043250701
FINAL SINGLE POINT ENERGY      -648.309797052053
Dispersion correction            ... done
Dispersion correction           -0.043254016
FINAL SINGLE POINT ENERGY      -648.309815729732
Dispersion correction            ... done

CARTESIAN COORDINATES (ANGSTROEM)
---------------------------------
  C      0.465337   -0.618283   -0.591401
  H      0.994210   -0.132048   -1.415914
  N      1.293566   -2.854361   -1.032108
  O      0.971137   -2.688196   -2.275880
  O      1.787024   -4.005112   -0.675727
  H      1.368021   -1.244145    1.870429
  C      1.142660   -1.879398   -0.149877
  H      3.109023   -1.323593   -0.719898
  H     -0.555195   -0.805009   -0.945582
  C      1.456425   -2.161165    1.287817
  H      0.777438   -2.906592    1.719559
  C      5.259753   -2.662000   -4.125297
  C      5.476962   -3.540116   -5.164950
  C      4.797442   -4.754963   -5.169946
  C      3.917303   -5.059642   -4.138019
  C      3.730101   -4.147566   -3.117875
  N      4.403381   -2.986932   -3.144945
  H      6.166464   -3.274614   -5.952395
  H      4.953933   -5.458965   -5.976286
  H      3.379596   -5.996595   -4.118044
  H      0.416442    0.084096    0.240142
  H      2.467925   -2.553346    1.417026
  H      3.049332   -4.284918   -2.281796
  H      5.744237   -1.700437   -4.042416
  H      4.612185   -1.295440   -0.363182
  H      4.252950   -2.309874   -2.366527
  O      3.998237   -1.170627   -1.098838

Dispersion correction           -0.043253016
FINAL SINGLE POINT ENERGY      -648.309834623643
Dispersion correction            ... done

DIPOLE MOMENT
-------------
                                X             Y             Z
Electronic contribution:      5.17781      -6.79626      -8.80900
Nuclear contribution   :     -0.20400       6.91322       6.75569
                        -----------------------------------------
Total Dipole Moment    :      4.97381       0.11696      -2.05331
                        -----------------------------------------
Magnitude (a.u.)       :      5.38224
Magnitude (Debye)      :     13.68058

Rotational constants in cm-1:     0.049911     0.012216     0.011222
Rotational constants in MHz :  1496.307370   366.221385   336.439240

                             ****ORCA TERMINATED NORMALLY****
TOTAL RUN TIME: 0 days 1 hours 7 minutes 17 seconds 98 msec
