                         Program Version 5.0.4 -  RELEASE  -
|  1> ! NEB-TS b3lyp D3 def2-TZVP CPCM
|  2>
|  3> %pal
|  4> nprocs 102
|  5> end
|  6>
|  7> %cpcm
|  8> epsilon 78.4
|  9> end
| 10>
| 11> %neb
| 12> NEB_End_XYZFile "end.xyz"
| 13> Nimages 6
| 14> end
| 15>
| 16>
| 17> *XYZfile -1 1 start.xyz
| 18>
| 19>                          ****END OF INPUT****
 Total Charge           Charge          ....   -1
 Multiplicity           Mult            ....    1
 Number of Electrons    NEL             ....  116
 Basis Dimension        Dim             ....  506

ORBITAL ENERGIES
----------------

  NO   OCC          E(Eh)            E(eV)
   0   2.0000    -101.526736     -2762.6829
   1   2.0000     -19.159159      -521.3472
   2   2.0000     -19.156803      -521.2831
   3   2.0000     -19.071331      -518.9573
   4   2.0000     -19.017430      -517.4906
   5   2.0000     -14.541279      -395.6883
   6   2.0000     -10.235497      -278.5220
   7   2.0000     -10.210029      -277.8290
   8   2.0000     -10.190482      -277.2971
   9   2.0000     -10.183614      -277.1102
  10   2.0000     -10.183172      -277.0982
  11   2.0000     -10.179720      -277.0043
  12   2.0000     -10.173989      -276.8483
  13   2.0000     -10.163684      -276.5679
  14   2.0000      -9.458883      -257.3893
  15   2.0000      -7.220161      -196.4706
  16   2.0000      -7.212087      -196.2509
  17   2.0000      -7.211783      -196.2426
  18   2.0000      -1.226390       -33.3718
  19   2.0000      -1.052381       -28.6367
  20   2.0000      -0.952011       -25.9055
  21   2.0000      -0.894460       -24.3395
  22   2.0000      -0.865539       -23.5525
  23   2.0000      -0.849913       -23.1273
  24   2.0000      -0.815176       -22.1821
  25   2.0000      -0.750664       -20.4266
  26   2.0000      -0.733788       -19.9674
  27   2.0000      -0.693080       -18.8597
  28   2.0000      -0.630753       -17.1636
  29   2.0000      -0.603133       -16.4121
  30   2.0000      -0.576203       -15.6793
  31   2.0000      -0.543039       -14.7768
  32   2.0000      -0.529756       -14.4154
  33   2.0000      -0.518444       -14.1076
  34   2.0000      -0.503935       -13.7128
  35   2.0000      -0.478969       -13.0334
  36   2.0000      -0.477053       -12.9813
  37   2.0000      -0.455349       -12.3907
  38   2.0000      -0.440774       -11.9941
  39   2.0000      -0.427645       -11.6368
  40   2.0000      -0.402140       -10.9428
  41   2.0000      -0.400895       -10.9089
  42   2.0000      -0.393142       -10.6979
  43   2.0000      -0.381344       -10.3769
  44   2.0000      -0.370702       -10.0873
  45   2.0000      -0.357202        -9.7200
  46   2.0000      -0.351115        -9.5543
  47   2.0000      -0.338263        -9.2046
  48   2.0000      -0.325519        -8.8578
  49   2.0000      -0.320285        -8.7154
  50   2.0000      -0.316796        -8.6205
  51   2.0000      -0.309452        -8.4206
  52   2.0000      -0.298528        -8.1234
  53   2.0000      -0.275606        -7.4996
  54   2.0000      -0.263641        -7.1740
  55   2.0000      -0.249595        -6.7918
  56   2.0000      -0.223919        -6.0932
  57   2.0000      -0.215176        -5.8552
  58   0.0000      -0.068950        -1.8762
  59   0.0000      -0.026388        -0.7180
  60   0.0000      -0.019582        -0.5329
  61   0.0000       0.024167         0.6576
  62   0.0000       0.043095         1.1727

-------
TIMINGS
-------

Dispersion correction           -0.046306886
FINAL SINGLE POINT ENERGY     -1127.289422105185
Dispersion correction            ... done
Dispersion correction           -0.046270168
FINAL SINGLE POINT ENERGY     -1127.289671742625
Dispersion correction            ... done
Dispersion correction           -0.046308498
FINAL SINGLE POINT ENERGY     -1127.289315889730
Dispersion correction            ... done
FINAL SINGLE POINT ENERGY     -1127.289835448365
FINAL SINGLE POINT ENERGY     -1127.290175690403
FINAL SINGLE POINT ENERGY     -1127.290376872454
FINAL SINGLE POINT ENERGY     -1127.290580254113
FINAL SINGLE POINT ENERGY     -1127.290687225756
FINAL SINGLE POINT ENERGY     -1127.290891504447
FINAL SINGLE POINT ENERGY     -1127.291212531917
FINAL SINGLE POINT ENERGY     -1127.292993200891
FINAL SINGLE POINT ENERGY     -1127.292999800160
FINAL SINGLE POINT ENERGY     -1127.293006278282
FINAL SINGLE POINT ENERGY     -1127.293012596876
FINAL SINGLE POINT ENERGY     -1127.293018828658
FINAL SINGLE POINT ENERGY     -1127.293024968788
FINAL SINGLE POINT ENERGY     -1127.293031006815
Dispersion correction           -0.046943496
FINAL SINGLE POINT ENERGY     -1127.293036958438
Dispersion correction            ... done
Dispersion correction           -0.046943681
FINAL SINGLE POINT ENERGY     -1127.293042841722
Dispersion correction            ... done

CARTESIAN COORDINATES (ANGSTROEM)
---------------------------------
  C     -0.578975    2.784341   -0.171614
  C      0.036827    1.550876   -0.358493
  C     -0.686793    0.373050   -0.194080
  C     -2.034013    0.436415    0.162205
  C     -2.632447    1.673895    0.331983
  C     -1.922631    2.857744    0.172779
  H     -0.012600    3.698086   -0.297583
  H      1.083350    1.487823   -0.628887
  H     -2.613434   -0.467657    0.295313
  Cl    -4.331686    1.748517    0.759567
  H     -2.411402    3.811637    0.314577
  C      0.016615   -0.949384   -0.345503
  C      0.095826   -1.755435    0.940427
  H      0.706990   -2.645260    0.808292
  H     -0.893428   -2.047182    1.296340
  H      0.563353   -1.126406    1.698201
  N     -0.604950   -1.764876   -1.462420
  O     -0.487661   -2.981575   -1.424923
  O     -1.130940   -1.169735   -2.393933
  H      1.050464   -0.767935   -0.724602
  O      3.910381   -1.257860    1.326864
  H      3.165044   -1.412035    1.915674
  H      3.494750   -0.924658    0.427832
  H      3.344447   -0.730027   -1.615157
  O      2.872913   -0.422359   -0.832860

Dispersion correction           -0.046943658
FINAL SINGLE POINT ENERGY     -1127.293048690295
Dispersion correction            ... done

DIPOLE MOMENT
-------------
                                X             Y             Z
Electronic contribution:    -24.96995       6.79170      -2.53867
Nuclear contribution   :     19.63601      -4.58588       3.69445
                        -----------------------------------------
Total Dipole Moment    :     -5.33394       2.20581       1.15578
                        -----------------------------------------
Magnitude (a.u.)       :      5.88662
Magnitude (Debye)      :     14.96261

Rotational constants in cm-1:     0.026162     0.010210     0.008691
Rotational constants in MHz :   784.320359   306.080565   260.560251

                             ****ORCA TERMINATED NORMALLY****
TOTAL RUN TIME: 0 days 3 hours 42 minutes 0 seconds 542 msec
